   3   3   0   0
  0.3669010E+03  0.1032500E-08  0.1032500E-08  0.1032500E-08  0.5000000E-15
   1.0000000000000000E-004
  CAR 
 unknown system                          
      2.65448912    -10.27088387  301     -6.39327066      1.00000000
    -10.271  0.0000E+00  0.0000E+00
    -10.228  0.0000E+00  0.0000E+00
    -10.185  0.0000E+00  0.0000E+00
    -10.142  0.0000E+00  0.0000E+00
    -10.099  0.0000E+00  0.0000E+00
    -10.055  0.0000E+00  0.0000E+00
    -10.012  0.0000E+00  0.0000E+00
     -9.969  0.0000E+00  0.0000E+00
     -9.926  0.0000E+00  0.0000E+00
     -9.883  0.0000E+00  0.0000E+00
     -9.840  0.0000E+00  0.0000E+00
     -9.797  0.0000E+00  0.0000E+00
     -9.754  0.0000E+00  0.0000E+00
     -9.711  0.0000E+00  0.0000E+00
     -9.668  0.0000E+00  0.0000E+00
     -9.625  0.0000E+00  0.0000E+00
     -9.582  0.0000E+00  0.0000E+00
     -9.538  0.0000E+00  0.0000E+00
     -9.495  0.0000E+00  0.0000E+00
     -9.452  0.2577E-16  0.1110E-17
     -9.409  0.1804E-15  0.8882E-17
     -9.366  0.2010E-14  0.9548E-16
     -9.323  0.2121E-13  0.1009E-14
     -9.280  0.2011E-12  0.9672E-14
     -9.237  0.1740E-11  0.8465E-13
     -9.194  0.1374E-10  0.6765E-12
     -9.151  0.9886E-10  0.4936E-11
     -9.108  0.6488E-09  0.3289E-10
     -9.065  0.3883E-08  0.2002E-09
     -9.021  0.2120E-07  0.1113E-08
     -8.978  0.1055E-06  0.5659E-08
     -8.935  0.4789E-06  0.2629E-07
     -8.892  0.1982E-05  0.1117E-06
     -8.849  0.7482E-05  0.4341E-06
     -8.806  0.2576E-04  0.1544E-05
     -8.763  0.8087E-04  0.5028E-05
     -8.720  0.2316E-03  0.1500E-04
     -8.677  0.6046E-03  0.4106E-04
     -8.634  0.1440E-02  0.1031E-03
     -8.591  0.3127E-02  0.2378E-03
     -8.548  0.6194E-02  0.5047E-03
     -8.504  0.1119E-01  0.9867E-03
     -8.461  0.1843E-01  0.1781E-02
     -8.418  0.2769E-01  0.2974E-02
     -8.375  0.3795E-01  0.4609E-02
     -8.332  0.4742E-01  0.6652E-02
     -8.289  0.5405E-01  0.8981E-02
     -8.246  0.5619E-01  0.1140E-01
     -8.203  0.5326E-01  0.1370E-01
     -8.160  0.4605E-01  0.1568E-01
     -8.117  0.3631E-01  0.1725E-01
     -8.074  0.2611E-01  0.1837E-01
     -8.030  0.1713E-01  0.1911E-01
     -7.987  0.1025E-01  0.1955E-01
     -7.944  0.5593E-02  0.1979E-01
     -7.901  0.2795E-02  0.1991E-01
     -7.858  0.1308E-02  0.1997E-01
     -7.815  0.6617E-03  0.2000E-01
     -7.772  0.5785E-03  0.2002E-01
     -7.729  0.1018E-02  0.2006E-01
     -7.686  0.2181E-02  0.2016E-01
     -7.643  0.4483E-02  0.2035E-01
     -7.600  0.8463E-02  0.2072E-01
     -7.557  0.1459E-01  0.2135E-01
     -7.513  0.2293E-01  0.2233E-01
     -7.470  0.3288E-01  0.2375E-01
     -7.427  0.4299E-01  0.2560E-01
     -7.384  0.5127E-01  0.2781E-01
     -7.341  0.5576E-01  0.3021E-01
     -7.298  0.5531E-01  0.3260E-01
     -7.255  0.5004E-01  0.3475E-01
     -7.212  0.4129E-01  0.3653E-01
     -7.169  0.3107E-01  0.3787E-01
     -7.126  0.2132E-01  0.3879E-01
     -7.083  0.1334E-01  0.3936E-01
     -7.040  0.7617E-02  0.3969E-01
     -6.996  0.3965E-02  0.3986E-01
     -6.953  0.1883E-02  0.3994E-01
     -6.910  0.8151E-03  0.3998E-01
     -6.867  0.3219E-03  0.3999E-01
     -6.824  0.1159E-03  0.4000E-01
     -6.781  0.3807E-04  0.4000E-01
     -6.738  0.1140E-04  0.4000E-01
     -6.695  0.3114E-05  0.4000E-01
     -6.652  0.7758E-06  0.4000E-01
     -6.609  0.1762E-06  0.4000E-01
     -6.566  0.3651E-07  0.4000E-01
     -6.523  0.6897E-08  0.4000E-01
     -6.479  0.1188E-08  0.4000E-01
     -6.436  0.1867E-09  0.4000E-01
     -6.393  0.2675E-10  0.4000E-01
     -6.350  0.3494E-11  0.4000E-01
     -6.307  0.4163E-12  0.4000E-01
     -6.264  0.4520E-13  0.4000E-01
     -6.221  0.4535E-14  0.4000E-01
     -6.178  0.4123E-15  0.4000E-01
     -6.135  0.0000E+00  0.4000E-01
     -6.092  0.0000E+00  0.4000E-01
     -6.049  0.0000E+00  0.4000E-01
     -6.006  0.0000E+00  0.4000E-01
     -5.962  0.0000E+00  0.4000E-01
     -5.919  0.0000E+00  0.4000E-01
     -5.876  0.0000E+00  0.4000E-01
     -5.833  0.0000E+00  0.4000E-01
     -5.790  0.0000E+00  0.4000E-01
     -5.747  0.0000E+00  0.4000E-01
     -5.704  0.0000E+00  0.4000E-01
     -5.661  0.0000E+00  0.4000E-01
     -5.618  0.0000E+00  0.4000E-01
     -5.575  0.0000E+00  0.4000E-01
     -5.532  0.0000E+00  0.4000E-01
     -5.488  0.0000E+00  0.4000E-01
     -5.445  0.0000E+00  0.4000E-01
     -5.402  0.0000E+00  0.4000E-01
     -5.359  0.0000E+00  0.4000E-01
     -5.316  0.0000E+00  0.4000E-01
     -5.273  0.0000E+00  0.4000E-01
     -5.230  0.0000E+00  0.4000E-01
     -5.187  0.0000E+00  0.4000E-01
     -5.144  0.0000E+00  0.4000E-01
     -5.101  0.0000E+00  0.4000E-01
     -5.058  0.0000E+00  0.4000E-01
     -5.015  0.0000E+00  0.4000E-01
     -4.971  0.0000E+00  0.4000E-01
     -4.928  0.0000E+00  0.4000E-01
     -4.885  0.0000E+00  0.4000E-01
     -4.842  0.0000E+00  0.4000E-01
     -4.799  0.0000E+00  0.4000E-01
     -4.756  0.0000E+00  0.4000E-01
     -4.713  0.0000E+00  0.4000E-01
     -4.670  0.0000E+00  0.4000E-01
     -4.627  0.0000E+00  0.4000E-01
     -4.584  0.0000E+00  0.4000E-01
     -4.541  0.0000E+00  0.4000E-01
     -4.498  0.0000E+00  0.4000E-01
     -4.454  0.0000E+00  0.4000E-01
     -4.411  0.0000E+00  0.4000E-01
     -4.368  0.0000E+00  0.4000E-01
     -4.325  0.0000E+00  0.4000E-01
     -4.282  0.0000E+00  0.4000E-01
     -4.239  0.0000E+00  0.4000E-01
     -4.196  0.0000E+00  0.4000E-01
     -4.153  0.0000E+00  0.4000E-01
     -4.110  0.0000E+00  0.4000E-01
     -4.067  0.0000E+00  0.4000E-01
     -4.024  0.0000E+00  0.4000E-01
     -3.981  0.0000E+00  0.4000E-01
     -3.937  0.0000E+00  0.4000E-01
     -3.894  0.0000E+00  0.4000E-01
     -3.851  0.0000E+00  0.4000E-01
     -3.808  0.0000E+00  0.4000E-01
     -3.765  0.0000E+00  0.4000E-01
     -3.722  0.0000E+00  0.4000E-01
     -3.679  0.0000E+00  0.4000E-01
     -3.636  0.0000E+00  0.4000E-01
     -3.593  0.0000E+00  0.4000E-01
     -3.550  0.0000E+00  0.4000E-01
     -3.507  0.0000E+00  0.4000E-01
     -3.464  0.0000E+00  0.4000E-01
     -3.420  0.0000E+00  0.4000E-01
     -3.377  0.0000E+00  0.4000E-01
     -3.334  0.0000E+00  0.4000E-01
     -3.291  0.0000E+00  0.4000E-01
     -3.248  0.0000E+00  0.4000E-01
     -3.205  0.0000E+00  0.4000E-01
     -3.162  0.0000E+00  0.4000E-01
     -3.119  0.0000E+00  0.4000E-01
     -3.076  0.0000E+00  0.4000E-01
     -3.033  0.0000E+00  0.4000E-01
     -2.990  0.0000E+00  0.4000E-01
     -2.947  0.0000E+00  0.4000E-01
     -2.903  0.0000E+00  0.4000E-01
     -2.860  0.0000E+00  0.4000E-01
     -2.817  0.0000E+00  0.4000E-01
     -2.774  0.0000E+00  0.4000E-01
     -2.731  0.0000E+00  0.4000E-01
     -2.688  0.0000E+00  0.4000E-01
     -2.645  0.2061E-15  0.4000E-01
     -2.602  0.2319E-14  0.4000E-01
     -2.559  0.2443E-13  0.4000E-01
     -2.516  0.2374E-12  0.4000E-01
     -2.473  0.2100E-11  0.4000E-01
     -2.429  0.1694E-10  0.4000E-01
     -2.386  0.1247E-09  0.4000E-01
     -2.343  0.8363E-09  0.4000E-01
     -2.300  0.5116E-08  0.4000E-01
     -2.257  0.2854E-07  0.4000E-01
     -2.214  0.1452E-06  0.4000E-01
     -2.171  0.6738E-06  0.4000E-01
     -2.128  0.2851E-05  0.4000E-01
     -2.085  0.1100E-04  0.4000E-01
     -2.042  0.3871E-04  0.4000E-01
     -1.999  0.1242E-03  0.4001E-01
     -1.956  0.3636E-03  0.4002E-01
     -1.912  0.9704E-03  0.4007E-01
     -1.869  0.2362E-02  0.4017E-01
     -1.826  0.5244E-02  0.4039E-01
     -1.783  0.1062E-01  0.4085E-01
     -1.740  0.1960E-01  0.4169E-01
     -1.697  0.3301E-01  0.4312E-01
     -1.654  0.5069E-01  0.4530E-01
     -1.611  0.7101E-01  0.4836E-01
     -1.568  0.9070E-01  0.5227E-01
     -1.525  0.1057E+00  0.5682E-01
     -1.482  0.1123E+00  0.6166E-01
     -1.439  0.1088E+00  0.6635E-01
     -1.395  0.9615E-01  0.7049E-01
     -1.352  0.7750E-01  0.7383E-01
     -1.309  0.5697E-01  0.7628E-01
     -1.266  0.3819E-01  0.7793E-01
     -1.223  0.2335E-01  0.7893E-01
     -1.180  0.1302E-01  0.7949E-01
     -1.137  0.6622E-02  0.7978E-01
     -1.094  0.3071E-02  0.7991E-01
     -1.051  0.1299E-02  0.7997E-01
     -1.008  0.5011E-03  0.7999E-01
     -0.965  0.1763E-03  0.8000E-01
     -0.922  0.5663E-04  0.8000E-01
     -0.878  0.1689E-04  0.8000E-01
     -0.835  0.5855E-05  0.8000E-01
     -0.792  0.6627E-05  0.8000E-01
     -0.749  0.1976E-04  0.8000E-01
     -0.706  0.6266E-04  0.8000E-01
     -0.663  0.1831E-03  0.8001E-01
     -0.620  0.4885E-03  0.8003E-01
     -0.577  0.1188E-02  0.8008E-01
     -0.534  0.2636E-02  0.8020E-01
     -0.491  0.5333E-02  0.8043E-01
     -0.448  0.9841E-02  0.8085E-01
     -0.405  0.1656E-01  0.8156E-01
     -0.361  0.2542E-01  0.8266E-01
     -0.318  0.3558E-01  0.8419E-01
     -0.275  0.4542E-01  0.8615E-01
     -0.232  0.5287E-01  0.8843E-01
     -0.189  0.5614E-01  0.9085E-01
     -0.146  0.5437E-01  0.9319E-01
     -0.103  0.4802E-01  0.9526E-01
     -0.060  0.3868E-01  0.9692E-01
     -0.017  0.2841E-01  0.9815E-01
      0.026  0.1904E-01  0.9897E-01
      0.069  0.1164E-01  0.9947E-01
      0.112  0.6502E-02  0.9975E-01
      0.156  0.3361E-02  0.9989E-01
      0.199  0.1724E-02  0.9997E-01
      0.242  0.1167E-02  0.1000E+00
      0.285  0.1510E-02  0.1001E+00
      0.328  0.2868E-02  0.1002E+00
      0.371  0.5617E-02  0.1004E+00
      0.414  0.1025E-01  0.1009E+00
      0.457  0.1713E-01  0.1016E+00
      0.500  0.2612E-01  0.1028E+00
      0.543  0.3631E-01  0.1043E+00
      0.586  0.4605E-01  0.1063E+00
      0.630  0.5326E-01  0.1086E+00
      0.673  0.5619E-01  0.1110E+00
      0.716  0.5405E-01  0.1133E+00
      0.759  0.4742E-01  0.1154E+00
      0.802  0.3795E-01  0.1170E+00
      0.845  0.2769E-01  0.1182E+00
      0.888  0.1843E-01  0.1190E+00
      0.931  0.1119E-01  0.1195E+00
      0.974  0.6194E-02  0.1198E+00
      1.017  0.3127E-02  0.1199E+00
      1.060  0.1440E-02  0.1200E+00
      1.103  0.6046E-03  0.1200E+00
      1.147  0.2316E-03  0.1200E+00
      1.190  0.8087E-04  0.1200E+00
      1.233  0.2576E-04  0.1200E+00
      1.276  0.7482E-05  0.1200E+00
      1.319  0.1982E-05  0.1200E+00
      1.362  0.4789E-06  0.1200E+00
      1.405  0.1055E-06  0.1200E+00
      1.448  0.2120E-07  0.1200E+00
      1.491  0.3883E-08  0.1200E+00
      1.534  0.6488E-09  0.1200E+00
      1.577  0.9886E-10  0.1200E+00
      1.620  0.1374E-10  0.1200E+00
      1.664  0.1740E-11  0.1200E+00
      1.707  0.2011E-12  0.1200E+00
      1.750  0.2118E-13  0.1200E+00
      1.793  0.2010E-14  0.1200E+00
      1.836  0.2061E-15  0.1200E+00
      1.879  0.0000E+00  0.1200E+00
      1.922  0.0000E+00  0.1200E+00
      1.965  0.0000E+00  0.1200E+00
      2.008  0.0000E+00  0.1200E+00
      2.051  0.0000E+00  0.1200E+00
      2.094  0.0000E+00  0.1200E+00
      2.137  0.0000E+00  0.1200E+00
      2.181  0.0000E+00  0.1200E+00
      2.224  0.0000E+00  0.1200E+00
      2.267  0.0000E+00  0.1200E+00
      2.310  0.0000E+00  0.1200E+00
      2.353  0.0000E+00  0.1200E+00
      2.396  0.0000E+00  0.1200E+00
      2.439  0.0000E+00  0.1200E+00
      2.482  0.0000E+00  0.1200E+00
      2.525  0.0000E+00  0.1200E+00
      2.568  0.0000E+00  0.1200E+00
      2.611  0.0000E+00  0.1200E+00
      2.654  0.0000E+00  0.1200E+00
