    3    3  100    1
  0.3669010E+03  0.1032500E-08  0.1032500E-08  0.1032500E-08  0.5000000E-15
   1.0000000000000000E-004
  CAR 
 unknown system                          
      4      1      6

  0.1262379E-14  0.1262379E-14  0.1262379E-14  0.1000000E+01
    1       -8.270884   1.000000
    2       -7.344919   1.000000
    3       -1.496352   0.000000
    4       -1.496352   0.000000
    5       -0.204125   0.000000
    6        0.654489   0.000000
