       N       E                     dE             d eps       ncg     rms          rms(c)
DAV:   1     0.148158285730E+02    0.14816E+02   -0.59365E+02    12   0.218E+02
DAV:   2    -0.371417557273E+01   -0.18530E+02   -0.18530E+02    24   0.350E+01
DAV:   3    -0.979546969693E+01   -0.60813E+01   -0.60813E+01    12   0.350E+01
DAV:   4    -0.100304652410E+02   -0.23500E+00   -0.23500E+00    12   0.936E+00
DAV:   5    -0.100378721924E+02   -0.74070E-02   -0.74070E-02    18   0.173E+00    0.599E+00
DAV:   6    -0.903262207183E+01    0.10053E+01   -0.80112E-01    18   0.449E+00    0.311E+00
DAV:   7    -0.860940474090E+01    0.42322E+00   -0.11465E+00    18   0.546E+00    0.606E-01
DAV:   8    -0.861288921837E+01   -0.34845E-02   -0.19438E-02    18   0.685E-01    0.138E-01
DAV:   9    -0.861125234081E+01    0.16369E-02   -0.84169E-03    18   0.465E-01    0.106E-01
DAV:  10    -0.861628824098E+01   -0.50359E-02   -0.22262E-03    12   0.271E-01    0.503E-02
DAV:  11    -0.862045931273E+01   -0.41711E-02   -0.17157E-03    18   0.206E-01    0.756E-02
DAV:  12    -0.862180435200E+01   -0.13450E-02   -0.89421E-04    24   0.136E-01    0.141E-02
DAV:  13    -0.862369870027E+01   -0.18943E-02   -0.38733E-04    12   0.927E-02    0.729E-03
DAV:  14    -0.862397761099E+01   -0.27891E-03   -0.30544E-05    12   0.284E-02    0.345E-03
DAV:  15    -0.862413233953E+01   -0.15473E-03   -0.10287E-05    12   0.177E-02    0.124E-03
DAV:  16    -0.862415496740E+01   -0.22628E-04   -0.18381E-06    12   0.678E-03    0.231E-03
DAV:  17    -0.862415837269E+01   -0.34053E-05   -0.69987E-07    12   0.407E-03    0.295E-04
DAV:  18    -0.862415973277E+01   -0.13601E-05   -0.10447E-07    12   0.164E-03    0.451E-04
DAV:  19    -0.862416022933E+01   -0.49656E-06   -0.42876E-08    12   0.888E-04    0.104E-04
DAV:  20    -0.862416057719E+01   -0.34785E-06   -0.21385E-08    12   0.646E-04    0.575E-05
DAV:  21    -0.862416062374E+01   -0.46554E-07   -0.18468E-09    18   0.200E-04
   1 F= -.86241606E+01 E0= -.86241606E+01  d E =-.862416E+01
       N       E                     dE             d eps       ncg     rms          rms(c)
DAV:   1    -0.862546726518E+01   -0.13067E-02   -0.36207E-02    12   0.166E+00    0.619E-02
DAV:   2    -0.862538588639E+01    0.81379E-04   -0.18436E-04    18   0.112E-01    0.345E-02
DAV:   3    -0.862533604084E+01    0.49846E-04   -0.15251E-04    18   0.528E-02    0.265E-03
DAV:   4    -0.862533855947E+01   -0.25186E-05   -0.97465E-07    12   0.677E-03    0.157E-03
DAV:   5    -0.862534334098E+01   -0.47815E-05   -0.85677E-07    18   0.521E-03    0.674E-04
DAV:   6    -0.862534613798E+01   -0.27970E-05   -0.21694E-07    18   0.212E-03    0.303E-04
DAV:   7    -0.862534766430E+01   -0.15263E-05   -0.15192E-07    18   0.166E-03    0.312E-04
DAV:   8    -0.862534864686E+01   -0.98256E-06   -0.10700E-07    18   0.147E-03    0.970E-05
DAV:   9    -0.862534887579E+01   -0.22893E-06   -0.14444E-08    12   0.576E-04    0.453E-05
DAV:  10    -0.862534897775E+01   -0.10196E-06   -0.11220E-08    12   0.462E-04    0.198E-05
DAV:  11    -0.862534901932E+01   -0.41568E-07   -0.36236E-09    12   0.249E-04
   2 F= -.86253490E+01 E0= -.86253490E+01  d E =-.118840E-02
       N       E                     dE             d eps       ncg     rms          rms(c)
DAV:   1    -0.862546189014E+01   -0.11291E-03   -0.54218E-03    12   0.643E-01    0.238E-02
DAV:   2    -0.862544904536E+01    0.12845E-04   -0.27079E-05    18   0.428E-02    0.133E-02
DAV:   3    -0.862544059764E+01    0.84477E-05   -0.22550E-05    18   0.203E-02    0.102E-03
DAV:   4    -0.862544095975E+01   -0.36211E-06   -0.14131E-07    12   0.274E-03    0.607E-04
DAV:   5    -0.862544172378E+01   -0.76403E-06   -0.12403E-07    18   0.197E-03    0.277E-04
DAV:   6    -0.862544228607E+01   -0.56229E-06   -0.21374E-08    18   0.667E-04    0.104E-04
DAV:   7    -0.862544280593E+01   -0.51986E-06   -0.40728E-08    18   0.812E-04    0.147E-04
DAV:   8    -0.862544309422E+01   -0.28828E-06   -0.20429E-08    12   0.618E-04    0.370E-05
DAV:   9    -0.862544318424E+01   -0.90021E-07   -0.34976E-09    12   0.288E-04
   3 F= -.86254432E+01 E0= -.86254432E+01  d E =-.128256E-02
