<?xml version="1.0" encoding="ISO-8859-1"?>
<modeling>
 <generator>
  <i name="program" type="string">vasp </i>
  <i name="version" type="string">6.2.1  </i>
  <i name="subversion" type="string">16May21 (build Dec 20 2021 17:15:01) gamma-only                       parallel </i>
  <i name="platform" type="string">LinuxGNU </i>
  <i name="date" type="string">2026 03 10 </i>
  <i name="time" type="string">21:49:25 </i>
 </generator>
 <incar>
  <i type="int" name="IBRION">     2</i>
  <i name="EDIFF">      0.00000010</i>
  <i type="int" name="NSW">   100</i>
  <i type="int" name="ISIF">     2</i>
  <i name="ENCUT">    500.00000000</i>
  <i type="int" name="ISMEAR">     0</i>
 </incar>
 <primitive_cell>
  <structure name="primitive_cell" >
   <crystal>
    <varray name="basis" >
     <v>      10.32500005       0.00000000       0.00000000 </v>
     <v>       0.00000000      10.32500005       0.00000000 </v>
     <v>       0.00000000       0.00000000      10.32500005 </v>
    </varray>
    <i name="volume">   1100.70309338 </i>
    <varray name="rec_basis" >
     <v>       0.09685230       0.00000000       0.00000000 </v>
     <v>       0.00000000       0.09685230       0.00000000 </v>
     <v>       0.00000000       0.00000000       0.09685230 </v>
    </varray>
   </crystal>
   <varray name="positions" >
    <v>       0.62881355       0.50000000       0.50000000 </v>
    <v>       0.37118644       0.50000000       0.50000000 </v>
    <v>       0.50000000       0.50000000       0.50000000 </v>
   </varray>
  </structure>
  <varray name="primitive_index" >
   <v type="int" >        1 </v>
   <v type="int" >        2 </v>
   <v type="int" >        3 </v>
  </varray>
 </primitive_cell>
 <kpoints>
  <generation param="Monkhorst-Pack">
   <v type="int" name="divisions">       1        1        1 </v>
   <v name="usershift">      0.00000000       0.00000000       0.00000000 </v>
   <v name="genvec1">      1.00000000       0.00000000       0.00000000 </v>
   <v name="genvec2">      0.00000000       1.00000000       0.00000000 </v>
   <v name="genvec3">      0.00000000       0.00000000       1.00000000 </v>
   <v name="shift">      0.00000000       0.00000000       0.00000000 </v>
  </generation>
  <varray name="kpointlist" >
   <v>       0.00000000       0.00000000       0.00000000 </v>
  </varray>
  <varray name="weights" >
   <v>       1.00000000 </v>
  </varray>
 </kpoints>
 <parameters>
  <separator name="general" >
   <i type="string" name="SYSTEM">unknown system</i>
   <i type="logical" name="LCOMPAT"> F  </i>
  </separator>
  <separator name="electronic" >
   <i type="string" name="PREC">normal</i>
   <i name="ENMAX">    500.00000000</i>
   <i name="ENAUG">    527.98500000</i>
   <i name="EDIFF">      0.00000010</i>
   <i type="int" name="IALGO">    38</i>
   <i type="int" name="IWAVPR">    11</i>
   <i type="int" name="NBANDS">     6</i>
   <i type="int" name="NBANDSLOW">    -1</i>
   <i type="int" name="NBANDSHIGH">    -1</i>
   <i name="NELECT">      4.00000000</i>
   <i type="int" name="TURBO">     0</i>
   <i type="int" name="IRESTART">     0</i>
   <i type="int" name="NREBOOT">     0</i>
   <i type="int" name="NMIN">     0</i>
   <i name="EREF">      0.00000000</i>
   <separator name="electronic smearing" >
    <i type="int" name="ISMEAR">     0</i>
    <i name="SIGMA">      0.20000000</i>
    <i name="KSPACING">      0.50000000</i>
    <i type="logical" name="KGAMMA"> T  </i>
    <i type="logical" name="KBLOWUP"> T  </i>
   </separator>
   <separator name="electronic projectors" >
    <i type="logical" name="LREAL"> F  </i>
    <v name="ROPT">      0.00000000      0.00000000</v>
    <i type="int" name="LMAXPAW">  -100</i>
    <i type="int" name="LMAXMIX">     2</i>
    <i type="logical" name="NLSPLINE"> F  </i>
   </separator>
   <separator name="electronic startup" >
    <i type="int" name="ISTART">     0</i>
    <i type="int" name="ICHARG">     2</i>
    <i type="int" name="INIWAV">     1</i>
   </separator>
   <separator name="electronic spin" >
    <i type="int" name="ISPIN">     1</i>
    <i type="logical" name="LNONCOLLINEAR"> F  </i>
    <v name="MAGMOM">      1.00000000      1.00000000      1.00000000</v>
    <i name="NUPDOWN">     -1.00000000</i>
    <i type="logical" name="LSORBIT"> F  </i>
    <v name="SAXIS">      0.00000000      0.00000000      1.00000000</v>
    <i type="logical" name="LSPIRAL"> F  </i>
    <v name="QSPIRAL">      0.00000000      0.00000000      0.00000000</v>
    <i type="logical" name="LZEROZ"> F  </i>
   </separator>
   <separator name="electronic exchange-correlation" >
    <i type="logical" name="LASPH"> F  </i>
    <i type="logical" name="LMETAGGA"> F  </i>
   </separator>
   <separator name="electronic convergence" >
    <i type="int" name="NELM">    60</i>
    <i type="int" name="NELMDL">     0</i>
    <i type="int" name="NELMIN">     2</i>
    <i name="ENINI">    500.00000000</i>
    <separator name="electronic convergence detail" >
     <i type="logical" name="LDIAG"> T  </i>
     <i type="logical" name="LSUBROT"> F  </i>
     <i name="WEIMIN">      0.00100000</i>
     <i name="EBREAK">      0.00000000</i>
     <i name="DEPER">      0.30000000</i>
     <i type="int" name="NRMM">     4</i>
     <i name="TIME">      0.40000000</i>
    </separator>
   </separator>
   <separator name="electronic mixer" >
    <i name="AMIX">      0.40000000</i>
    <i name="BMIX">      1.00000000</i>
    <i name="AMIN">      0.10000000</i>
    <i name="AMIX_MAG">      1.60000000</i>
    <i name="BMIX_MAG">      1.00000000</i>
    <separator name="electronic mixer details" >
     <i type="int" name="IMIX">     4</i>
     <i type="logical" name="MIXFIRST"> F  </i>
     <i type="int" name="MAXMIX">   -45</i>
     <i name="WC">    100.00000000</i>
     <i type="int" name="INIMIX">     1</i>
     <i type="int" name="MIXPRE">     1</i>
     <i type="int" name="MREMOVE">     5</i>
    </separator>
   </separator>
   <separator name="electronic dipolcorrection" >
    <i type="logical" name="LDIPOL"> F  </i>
    <i type="logical" name="LMONO"> F  </i>
    <i type="int" name="IDIPOL">     0</i>
    <i name="EPSILON">      1.00000000</i>
    <v name="DIPOL">   -100.00000000   -100.00000000   -100.00000000</v>
    <i name="EFIELD">      0.00000000</i>
   </separator>
  </separator>
  <separator name="grids" >
   <i type="int" name="NGX">    56</i>
   <i type="int" name="NGY">    56</i>
   <i type="int" name="NGZ">    56</i>
   <i type="int" name="NGXF">   112</i>
   <i type="int" name="NGYF">   112</i>
   <i type="int" name="NGZF">   112</i>
   <i type="logical" name="ADDGRID"> F  </i>
  </separator>
  <separator name="ionic" >
   <i type="int" name="NSW">   100</i>
   <i type="int" name="IBRION">     2</i>
   <i type="int" name="MDALGO">     0</i>
   <i type="int" name="ISIF">     2</i>
   <i name="PSTRESS">      0.00000000</i>
   <i name="EDIFFG">      0.00000100</i>
   <i type="int" name="NFREE">     1</i>
   <i name="POTIM">      0.50000000</i>
   <i name="SMASS">     -3.00000000</i>
   <i name="SCALEE">      1.00000000</i>
  </separator>
  <separator name="ionic md" >
   <i name="TEBEG">      0.00010000</i>
   <i name="TEEND">      0.00010000</i>
   <i type="int" name="NBLOCK">     1</i>
   <i type="int" name="KBLOCK">   100</i>
   <i type="int" name="NPACO">   256</i>
   <i name="APACO">     16.00000000</i>
  </separator>
  <separator name="symmetry" >
   <i type="int" name="ISYM">     2</i>
   <i name="SYMPREC">      0.00001000</i>
  </separator>
  <separator name="dos" >
   <i type="int" name="LORBIT">     0</i>
   <v name="RWIGS">     -1.00000000     -1.00000000</v>
   <i type="int" name="NEDOS">   301</i>
   <i name="EMIN">     10.00000000</i>
   <i name="EMAX">    -10.00000000</i>
   <i name="EFERMI">      0.00000000</i>
  </separator>
  <separator name="writing" >
   <i type="int" name="NWRITE">     2</i>
   <i type="logical" name="LWAVE"> T  </i>
   <i type="logical" name="LDOWNSAMPLE"> F  </i>
   <i type="logical" name="LCHARG"> T  </i>
   <i type="logical" name="LPARD"> F  </i>
   <i type="logical" name="LVTOT"> F  </i>
   <i type="logical" name="LVHAR"> F  </i>
   <i type="logical" name="LELF"> F  </i>
   <i type="logical" name="LOPTICS"> F  </i>
   <v name="STM">      0.00000000      0.00000000      0.00000000      0.00000000      0.00000000      0.00000000      0.00000000</v>
  </separator>
  <separator name="performance" >
   <i type="int" name="NPAR">     1</i>
   <i type="int" name="NSIM">     4</i>
   <i type="int" name="NBLK">    -1</i>
   <i type="logical" name="LPLANE"> T  </i>
   <i type="logical" name="LSCALAPACK"> T  </i>
   <i type="logical" name="LSCAAWARE"> F  </i>
   <i type="logical" name="LSCALU"> F  </i>
   <i type="logical" name="LASYNC"> F  </i>
   <i type="logical" name="LORBITALREAL"> F  </i>
  </separator>
  <separator name="miscellaneous" >
   <i type="int" name="IDIOT">     3</i>
   <i type="int" name="PHON_NSTRUCT">    -1</i>
   <i type="logical" name="LMUSIC"> F  </i>
   <v name="POMASS">      1.00000000      9.01300000</v>
   <v name="DARWINR">      0.00000000      0.00000000</v>
   <v name="DARWINV">      1.00000000      1.00000000</v>
   <i type="logical" name="LCORR"> T  </i>
  </separator>
  <i type="logical" name="GGA_COMPAT"> T  </i>
  <i type="logical" name="LBERRY"> F  </i>
  <i type="int" name="ICORELEVEL">     0</i>
  <i type="logical" name="LDAU"> F  </i>
  <i type="int" name="I_CONSTRAINED_M">     0</i>
  <separator name="electronic exchange-correlation" >
   <i type="string" name="GGA">--</i>
   <i type="int" name="VOSKOWN">     0</i>
   <i type="logical" name="LHFCALC"> F  </i>
   <i type="string" name="PRECFOCK"></i>
   <i type="logical" name="LSYMGRAD"> F  </i>
   <i type="logical" name="LHFONE"> F  </i>
   <i type="logical" name="LRHFCALC"> F  </i>
   <i type="logical" name="LTHOMAS"> F  </i>
   <i type="logical" name="LMODELHF"> F  </i>
   <i type="logical" name="LFOCKACE"> F  </i>
   <i name="ENCUT4O">     -1.00000000</i>
   <i type="int" name="EXXOEP">     0</i>
   <i type="int" name="FOURORBIT">     0</i>
   <i name="AEXX">      0.00000000</i>
   <i name="HFALPHA">      0.00000000</i>
   <i name="MCALPHA">      0.00000000</i>
   <i name="ALDAX">      1.00000000</i>
   <i name="AGGAX">      1.00000000</i>
   <i name="ALDAC">      1.00000000</i>
   <i name="AGGAC">      1.00000000</i>
   <i type="int" name="NKREDX">     1</i>
   <i type="int" name="NKREDY">     1</i>
   <i type="int" name="NKREDZ">     1</i>
   <i type="logical" name="SHIFTRED"> F  </i>
   <i type="logical" name="ODDONLY"> F  </i>
   <i type="logical" name="EVENONLY"> F  </i>
   <i type="int" name="LMAXFOCK">     0</i>
   <i type="int" name="NMAXFOCKAE">     0</i>
   <i type="logical" name="LFOCKAEDFT"> F  </i>
   <i name="HFSCREEN">      0.00000000</i>
   <i name="HFSCREENC">      0.00000000</i>
   <i type="int" name="NBANDSGWLOW">     0</i>
  </separator>
  <separator name="vdW DFT" >
   <i type="logical" name="LUSE_VDW"> F  </i>
   <i name="Zab_VDW">     -0.84910000</i>
   <i name="PARAM1">      0.12340000</i>
   <i name="PARAM2">      1.00000000</i>
   <i name="PARAM3">      0.00000000</i>
  </separator>
  <separator name="model GW" >
   <i type="int" name="MODEL_GW">     0</i>
   <i name="MODEL_EPS0">    220.14061868</i>
   <i name="MODEL_ALPHA">      1.00000000</i>
  </separator>
  <separator name="linear response parameters" >
   <i type="logical" name="LEPSILON"> F  </i>
   <i type="logical" name="LRPA"> F  </i>
   <i type="logical" name="LNABLA"> F  </i>
   <i type="logical" name="LVEL"> F  </i>
   <i type="int" name="KINTER">     0</i>
   <i name="CSHIFT">      0.10000000</i>
   <i name="OMEGAMAX">     -1.00000000</i>
   <i name="DEG_THRESHOLD">      0.00200000</i>
   <i name="RTIME">     -0.10000000</i>
   <i name="WPLASMAI">      0.00000000</i>
   <v name="DFIELD">      0.00000000      0.00000000      0.00000000</v>
   <v name="WPLASMA">      0.00000000      0.00000000      0.00000000      0.00000000      0.00000000      0.00000000      0.00000000      0.00000000      0.00000000</v>
  </separator>
  <separator name="orbital magnetization" >
   <i type="logical" name="NUCIND"> F  </i>
   <v name="MAGPOS">      0.00000000      0.00000000      0.00000000</v>
   <i type="logical" name="LNICSALL"> T  </i>
   <i type="logical" name="ORBITALMAG"> F  </i>
   <i type="logical" name="LMAGBLOCH"> F  </i>
   <i type="logical" name="LCHIMAG"> F  </i>
   <i type="logical" name="LGAUGE"> T  </i>
   <i type="int" name="MAGATOM">     0</i>
   <v name="MAGDIPOL">      0.00000000      0.00000000      0.00000000</v>
   <v name="AVECCONST">      0.00000000      0.00000000      0.00000000</v>
  </separator>
  <separator name="response functions" >
   <i type="logical" name="LFINITE_TEMPERATURE"> F  </i>
   <i type="logical" name="LADDER"> F  </i>
   <i type="logical" name="LRPAFORCE"> F  </i>
   <i type="logical" name="LFXC"> F  </i>
   <i type="logical" name="LHARTREE"> T  </i>
   <i type="int" name="IBSE">     0</i>
   <v type="int" name="KPOINT">    -1     0     0     0</v>
   <i type="logical" name="LTCTC"> F  </i>
   <i type="logical" name="LTCTE"> F  </i>
   <i type="logical" name="LTETE"> F  </i>
   <i type="logical" name="LTRIPLET"> F  </i>
   <i type="logical" name="LFXCEPS"> F  </i>
   <i type="logical" name="LFXHEG"> F  </i>
   <i type="int" name="NATURALO">     2</i>
   <i type="logical" name="LHOLEGF"> F  </i>
   <i type="logical" name="L2ORDER"> F  </i>
   <i type="logical" name="LDMP1"> F  </i>
   <i type="logical" name="LMP2LT"> F  </i>
   <i type="logical" name="LSMP2LT"> F  </i>
   <i type="logical" name="LGWLF"> F  </i>
   <i name="ENCUTGW">     -2.00000000</i>
   <i name="ENCUTGWSOFT">     -2.00000000</i>
   <i name="ENCUTLF">     -1.00000000</i>
   <i type="logical" name="LESF_SPLINES"> F  </i>
   <i type="int" name="LMAXMP2">    -1</i>
   <i name="SCISSOR">      0.00000000</i>
   <i type="int" name="NOMEGA">     0</i>
   <i type="int" name="NOMEGAR">     0</i>
   <i type="int" name="NBANDSGW">    -1</i>
   <i type="int" name="NBANDSO">    -1</i>
   <i type="int" name="NBANDSV">    -1</i>
   <i type="int" name="NELM">     1</i>
   <i type="int" name="NELMHF">     1</i>
   <i type="int" name="DIM">     3</i>
   <i type="int" name="IESPILON">     4</i>
   <i type="int" name="ANTIRES">     0</i>
   <i name="OMEGAMAX">    -30.00000000</i>
   <i name="OMEGAMIN">    -30.00000000</i>
   <i name="OMEGATL">   -200.00000000</i>
   <i type="int" name="OMEGAGRID">     0</i>
   <i name="CSHIFT">     -0.10000000</i>
   <i type="logical" name="LSELFENERGY"> F  </i>
   <i type="logical" name="LSPECTRAL"> F  </i>
   <i type="logical" name="LSPECTRALGW"> F  </i>
   <i type="logical" name="LSINGLES"> F  </i>
   <i type="logical" name="LFERMIGW"> F  </i>
   <i type="logical" name="ODDONLYGW"> F  </i>
   <i type="logical" name="EVENONLYGW"> F  </i>
   <i type="int" name="NKREDLFX">     1</i>
   <i type="int" name="NKREDLFY">     1</i>
   <i type="int" name="NKREDLFZ">     1</i>
   <i type="int" name="MAXMEM">  2800</i>
   <i type="int" name="TELESCOPE">     0</i>
   <i type="int" name="NTAUPAR">    -1</i>
   <i type="int" name="NOMEGAPAR">    -1</i>
   <i name="DAMP_NEWTON">      0.80000001</i>
   <i name="LAMBDA">      1.00000000</i>
  </separator>
  <separator name="External order field" >
   <i name="OFIELD_KAPPA">      0.00000000</i>
   <v name="OFIELD_K">      0.00000000      0.00000000      0.00000000</v>
   <i name="OFIELD_Q6_NEAR">      0.00000000</i>
   <i name="OFIELD_Q6_FAR">      0.00000000</i>
   <i name="OFIELD_A">      0.00000000</i>
  </separator>
 </parameters>
 <atominfo>
  <atoms>       3 </atoms>
  <types>       2 </types>
  <array name="atoms" >
   <dimension dim="1">ion</dimension>
   <field type="string">element</field>
   <field type="int">atomtype</field>
   <set>
    <rc><c>H </c><c>   1</c></rc>
    <rc><c>H </c><c>   1</c></rc>
    <rc><c>Be</c><c>   2</c></rc>
   </set>
  </array>
  <array name="atomtypes" >
   <dimension dim="1">type</dimension>
   <field type="int">atomspertype</field>
   <field type="string">element</field>
   <field>mass</field>
   <field>valence</field>
   <field type="string">pseudopotential</field>
   <set>
    <rc><c>   2</c><c>H </c><c>      1.00000000</c><c>      1.00000000</c><c>  PAW_PBE H 15Jun2001                   </c></rc>
    <rc><c>   1</c><c>Be</c><c>      9.01300000</c><c>      2.00000000</c><c>  PAW_PBE Be_GW 04Mar2008               </c></rc>
   </set>
  </array>
 </atominfo>
 <structure name="initialpos" >
  <crystal>
   <varray name="basis" >
    <v>      10.32500005       0.00000000       0.00000000 </v>
    <v>       0.00000000      10.32500005       0.00000000 </v>
    <v>       0.00000000       0.00000000      10.32500005 </v>
   </varray>
   <i name="volume">   1100.70309338 </i>
   <varray name="rec_basis" >
    <v>       0.09685230       0.00000000       0.00000000 </v>
    <v>       0.00000000       0.09685230       0.00000000 </v>
    <v>       0.00000000       0.00000000       0.09685230 </v>
   </varray>
  </crystal>
  <varray name="positions" >
   <v>       0.62881355       0.50000000       0.50000000 </v>
   <v>       0.37118644       0.50000000       0.50000000 </v>
   <v>       0.50000000       0.50000000       0.50000000 </v>
  </varray>
 </structure>
 <calculation>
  <scstep>
   <time name="dav">    0.21    0.22</time>
   <time name="total">    1.40    1.43</time>
   <energy>
    <i name="alphaZ">      0.09131387 </i>
    <i name="ewald">     17.47667994 </i>
    <i name="hartreedc">    -44.41868816 </i>
    <i name="XCdc">      6.76467858 </i>
    <i name="pawpsdc">     19.56108429 </i>
    <i name="pawaedc">    -18.94546289 </i>
    <i name="eentropy">     -0.00000000 </i>
    <i name="bandstr">    -18.20946113 </i>
    <i name="atom">     52.49568407 </i>
    <i name="e_fr_energy">     14.81582857 </i>
    <i name="e_wo_entrp">     14.81582857 </i>
    <i name="e_0_energy">     14.81582857 </i>
   </energy>
  </scstep>
  <scstep>
   <time name="dav">    0.36    0.36</time>
   <time name="total">    0.36    0.36</time>
   <energy>
    <i name="e_fr_energy">     -3.71417557 </i>
    <i name="e_wo_entrp">     -3.71417557 </i>
    <i name="e_0_energy">     -3.71417557 </i>
   </energy>
  </scstep>
  <scstep>
   <time name="dav">    0.21    0.22</time>
   <time name="total">    0.21    0.22</time>
   <energy>
    <i name="e_fr_energy">     -9.79546970 </i>
    <i name="e_wo_entrp">     -9.79546970 </i>
    <i name="e_0_energy">     -9.79546970 </i>
   </energy>
  </scstep>
  <scstep>
   <time name="dav">    0.21    0.21</time>
   <time name="total">    0.21    0.21</time>
   <energy>
    <i name="e_fr_energy">    -10.03046524 </i>
    <i name="e_wo_entrp">    -10.03046524 </i>
    <i name="e_0_energy">    -10.03046524 </i>
   </energy>
  </scstep>
  <scstep>
   <time name="dav">    0.28    0.31</time>
   <time name="total">    0.42    0.44</time>
   <energy>
    <i name="e_fr_energy">    -10.03787219 </i>
    <i name="e_wo_entrp">    -10.03787219 </i>
    <i name="e_0_energy">    -10.03787219 </i>
   </energy>
  </scstep>
  <scstep>
   <time name="dav">    0.28    0.31</time>
   <time name="total">    1.61    1.64</time>
   <energy>
    <i name="e_fr_energy">     -9.03262207 </i>
    <i name="e_wo_entrp">     -9.03262207 </i>
    <i name="e_0_energy">     -9.03262207 </i>
   </energy>
  </scstep>
  <scstep>
   <time name="dav">    0.28    0.31</time>
   <time name="total">    1.53    1.56</time>
   <energy>
    <i name="e_fr_energy">     -8.60940474 </i>
    <i name="e_wo_entrp">     -8.60940474 </i>
    <i name="e_0_energy">     -8.60940474 </i>
   </energy>
  </scstep>
  <scstep>
   <time name="dav">    0.27    0.30</time>
   <time name="total">    1.49    1.53</time>
   <energy>
    <i name="e_fr_energy">     -8.61288922 </i>
    <i name="e_wo_entrp">     -8.61288922 </i>
    <i name="e_0_energy">     -8.61288922 </i>
   </energy>
  </scstep>
  <scstep>
   <time name="dav">    0.24    0.27</time>
   <time name="total">    1.47    1.51</time>
   <energy>
    <i name="e_fr_energy">     -8.61125234 </i>
    <i name="e_wo_entrp">     -8.61125234 </i>
    <i name="e_0_energy">     -8.61125234 </i>
   </energy>
  </scstep>
  <scstep>
   <time name="dav">    0.18    0.20</time>
   <time name="total">    1.40    1.43</time>
   <energy>
    <i name="e_fr_energy">     -8.61628824 </i>
    <i name="e_wo_entrp">     -8.61628824 </i>
    <i name="e_0_energy">     -8.61628824 </i>
   </energy>
  </scstep>
  <scstep>
   <time name="dav">    0.25    0.25</time>
   <time name="total">    1.47    1.48</time>
   <energy>
    <i name="e_fr_energy">     -8.62045931 </i>
    <i name="e_wo_entrp">     -8.62045931 </i>
    <i name="e_0_energy">     -8.62045931 </i>
   </energy>
  </scstep>
  <scstep>
   <time name="dav">    0.32    0.32</time>
   <time name="total">    1.53    1.55</time>
   <energy>
    <i name="e_fr_energy">     -8.62180435 </i>
    <i name="e_wo_entrp">     -8.62180435 </i>
    <i name="e_0_energy">     -8.62180435 </i>
   </energy>
  </scstep>
  <scstep>
   <time name="dav">    0.16    0.16</time>
   <time name="total">    1.36    1.38</time>
   <energy>
    <i name="e_fr_energy">     -8.62369870 </i>
    <i name="e_wo_entrp">     -8.62369870 </i>
    <i name="e_0_energy">     -8.62369870 </i>
   </energy>
  </scstep>
  <scstep>
   <time name="dav">    0.16    0.16</time>
   <time name="total">    1.39    1.41</time>
   <energy>
    <i name="e_fr_energy">     -8.62397761 </i>
    <i name="e_wo_entrp">     -8.62397761 </i>
    <i name="e_0_energy">     -8.62397761 </i>
   </energy>
  </scstep>
  <scstep>
   <time name="dav">    0.17    0.17</time>
   <time name="total">    1.41    1.43</time>
   <energy>
    <i name="e_fr_energy">     -8.62413234 </i>
    <i name="e_wo_entrp">     -8.62413234 </i>
    <i name="e_0_energy">     -8.62413234 </i>
   </energy>
  </scstep>
  <scstep>
   <time name="dav">    0.17    0.18</time>
   <time name="total">    1.43    1.45</time>
   <energy>
    <i name="e_fr_energy">     -8.62415497 </i>
    <i name="e_wo_entrp">     -8.62415497 </i>
    <i name="e_0_energy">     -8.62415497 </i>
   </energy>
  </scstep>
  <scstep>
   <time name="dav">    0.18    0.18</time>
   <time name="total">    1.43    1.44</time>
   <energy>
    <i name="e_fr_energy">     -8.62415837 </i>
    <i name="e_wo_entrp">     -8.62415837 </i>
    <i name="e_0_energy">     -8.62415837 </i>
   </energy>
  </scstep>
  <scstep>
   <time name="dav">    0.20    0.20</time>
   <time name="total">    1.46    1.48</time>
   <energy>
    <i name="e_fr_energy">     -8.62415973 </i>
    <i name="e_wo_entrp">     -8.62415973 </i>
    <i name="e_0_energy">     -8.62415973 </i>
   </energy>
  </scstep>
  <scstep>
   <time name="dav">    0.22    0.22</time>
   <time name="total">    1.49    1.51</time>
   <energy>
    <i name="e_fr_energy">     -8.62416023 </i>
    <i name="e_wo_entrp">     -8.62416023 </i>
    <i name="e_0_energy">     -8.62416023 </i>
   </energy>
  </scstep>
  <scstep>
   <time name="dav">    0.21    0.21</time>
   <time name="total">    1.50    1.52</time>
   <energy>
    <i name="e_fr_energy">     -8.62416058 </i>
    <i name="e_wo_entrp">     -8.62416058 </i>
    <i name="e_0_energy">     -8.62416058 </i>
   </energy>
  </scstep>
  <scstep>
   <time name="dav">    0.21    0.21</time>
   <time name="total">    1.34    1.35</time>
   <energy>
    <i name="alphaZ">      0.09131387 </i>
    <i name="ewald">     17.47667994 </i>
    <i name="hartreedc">    -56.17774228 </i>
    <i name="XCdc">      8.24201696 </i>
    <i name="pawpsdc">     60.74755905 </i>
    <i name="pawaedc">    -60.20831520 </i>
    <i name="eentropy">     -0.00000000 </i>
    <i name="bandstr">    -31.29135704 </i>
    <i name="atom">     52.49568407 </i>
    <i name="e_fr_energy">     -8.62416062 </i>
    <i name="e_wo_entrp">     -8.62416062 </i>
    <i name="e_0_energy">     -8.62416062 </i>
   </energy>
  </scstep>
  <structure>
   <crystal>
    <varray name="basis" >
     <v>      10.32500005       0.00000000       0.00000000 </v>
     <v>       0.00000000      10.32500005       0.00000000 </v>
     <v>       0.00000000       0.00000000      10.32500005 </v>
    </varray>
    <i name="volume">   1100.70309338 </i>
    <varray name="rec_basis" >
     <v>       0.09685230       0.00000000       0.00000000 </v>
     <v>       0.00000000       0.09685230       0.00000000 </v>
     <v>       0.00000000       0.00000000       0.09685230 </v>
    </varray>
   </crystal>
   <varray name="positions" >
    <v>       0.62881355       0.50000000       0.50000000 </v>
    <v>       0.37118644       0.50000000       0.50000000 </v>
    <v>       0.50000000       0.50000000       0.50000000 </v>
   </varray>
  </structure>
  <varray name="forces" >
   <v>       0.13968294      -0.00000000       0.00000000 </v>
   <v>      -0.13968294       0.00000000      -0.00000000 </v>
   <v>       0.00000000      -0.00000000       0.00000000 </v>
  </varray>
  <varray name="stress" >
   <v>       0.50481760       0.00000000       0.00000000 </v>
   <v>      -0.00000000      -0.04598671      -0.00000000 </v>
   <v>       0.00000000      -0.00000000      -0.04598671 </v>
  </varray>
  <energy>
   <i name="e_fr_energy">     -8.62416062 </i>
   <i name="e_wo_entrp">     -8.62416062 </i>
   <i name="e_0_energy">     -8.62416062 </i>
  </energy>
  <time name="totalsc">   31.46   33.91</time>
 </calculation>
 <calculation>
  <scstep>
   <time name="dav">    0.17    0.18</time>
   <time name="total">    1.51    1.53</time>
   <energy>
    <i name="alphaZ">      0.09131387 </i>
    <i name="ewald">     17.23550849 </i>
    <i name="hartreedc">    -56.05550544 </i>
    <i name="XCdc">      8.23307155 </i>
    <i name="pawpsdc">     60.74797002 </i>
    <i name="pawaedc">    -60.20872909 </i>
    <i name="eentropy">     -0.00000000 </i>
    <i name="bandstr">    -31.16478073 </i>
    <i name="atom">     52.49568407 </i>
    <i name="e_fr_energy">     -8.62546727 </i>
    <i name="e_wo_entrp">     -8.62546727 </i>
    <i name="e_0_energy">     -8.62546727 </i>
   </energy>
  </scstep>
  <scstep>
   <time name="dav">    0.23    0.29</time>
   <time name="total">    1.43    1.50</time>
   <energy>
    <i name="e_fr_energy">     -8.62538589 </i>
    <i name="e_wo_entrp">     -8.62538589 </i>
    <i name="e_0_energy">     -8.62538589 </i>
   </energy>
  </scstep>
  <scstep>
   <time name="dav">    0.23    0.23</time>
   <time name="total">    1.36    1.38</time>
   <energy>
    <i name="e_fr_energy">     -8.62533604 </i>
    <i name="e_wo_entrp">     -8.62533604 </i>
    <i name="e_0_energy">     -8.62533604 </i>
   </energy>
  </scstep>
  <scstep>
   <time name="dav">    0.17    0.17</time>
   <time name="total">    1.30    1.32</time>
   <energy>
    <i name="e_fr_energy">     -8.62533856 </i>
    <i name="e_wo_entrp">     -8.62533856 </i>
    <i name="e_0_energy">     -8.62533856 </i>
   </energy>
  </scstep>
  <scstep>
   <time name="dav">    0.22    0.22</time>
   <time name="total">    1.37    1.39</time>
   <energy>
    <i name="e_fr_energy">     -8.62534334 </i>
    <i name="e_wo_entrp">     -8.62534334 </i>
    <i name="e_0_energy">     -8.62534334 </i>
   </energy>
  </scstep>
  <scstep>
   <time name="dav">    0.22    0.22</time>
   <time name="total">    1.38    1.40</time>
   <energy>
    <i name="e_fr_energy">     -8.62534614 </i>
    <i name="e_wo_entrp">     -8.62534614 </i>
    <i name="e_0_energy">     -8.62534614 </i>
   </energy>
  </scstep>
  <scstep>
   <time name="dav">    0.21    0.21</time>
   <time name="total">    1.41    1.42</time>
   <energy>
    <i name="e_fr_energy">     -8.62534766 </i>
    <i name="e_wo_entrp">     -8.62534766 </i>
    <i name="e_0_energy">     -8.62534766 </i>
   </energy>
  </scstep>
  <scstep>
   <time name="dav">    0.22    0.22</time>
   <time name="total">    1.44    1.45</time>
   <energy>
    <i name="e_fr_energy">     -8.62534865 </i>
    <i name="e_wo_entrp">     -8.62534865 </i>
    <i name="e_0_energy">     -8.62534865 </i>
   </energy>
  </scstep>
  <scstep>
   <time name="dav">    0.20    0.20</time>
   <time name="total">    1.43    1.44</time>
   <energy>
    <i name="e_fr_energy">     -8.62534888 </i>
    <i name="e_wo_entrp">     -8.62534888 </i>
    <i name="e_0_energy">     -8.62534888 </i>
   </energy>
  </scstep>
  <scstep>
   <time name="dav">    0.18    0.19</time>
   <time name="total">    1.41    1.43</time>
   <energy>
    <i name="e_fr_energy">     -8.62534898 </i>
    <i name="e_wo_entrp">     -8.62534898 </i>
    <i name="e_0_energy">     -8.62534898 </i>
   </energy>
  </scstep>
  <scstep>
   <time name="dav">    0.16    0.16</time>
   <time name="total">    1.28    1.29</time>
   <energy>
    <i name="alphaZ">      0.09131387 </i>
    <i name="ewald">     17.23550849 </i>
    <i name="hartreedc">    -55.96474797 </i>
    <i name="XCdc">      8.22423113 </i>
    <i name="pawpsdc">     59.77445743 </i>
    <i name="pawaedc">    -59.23352246 </i>
    <i name="eentropy">     -0.00000000 </i>
    <i name="bandstr">    -31.24827359 </i>
    <i name="atom">     52.49568407 </i>
    <i name="e_fr_energy">     -8.62534902 </i>
    <i name="e_wo_entrp">     -8.62534902 </i>
    <i name="e_0_energy">     -8.62534902 </i>
   </energy>
  </scstep>
  <structure>
   <crystal>
    <varray name="basis" >
     <v>      10.32500005       0.00000000       0.00000000 </v>
     <v>       0.00000000      10.32500005       0.00000000 </v>
     <v>       0.00000000       0.00000000      10.32500005 </v>
    </varray>
    <i name="volume">   1100.70309338 </i>
    <varray name="rec_basis" >
     <v>       0.09685230       0.00000000       0.00000000 </v>
     <v>       0.00000000       0.09685230       0.00000000 </v>
     <v>       0.00000000       0.00000000       0.09685230 </v>
    </varray>
   </crystal>
   <varray name="positions" >
    <v>       0.62946621       0.50000000       0.50000000 </v>
    <v>       0.37053378       0.50000000       0.50000000 </v>
    <v>       0.50000000       0.50000000       0.50000000 </v>
   </varray>
  </structure>
  <varray name="forces" >
   <v>       0.03775015       0.00000000       0.00000000 </v>
   <v>      -0.03775015      -0.00000000      -0.00000000 </v>
   <v>       0.00000000      -0.00000000      -0.00000000 </v>
  </varray>
  <varray name="stress" >
   <v>       0.11207517       0.00000000      -0.00000000 </v>
   <v>       0.00000000      -0.04569970       0.00000000 </v>
   <v>      -0.00000000      -0.00000000      -0.04569970 </v>
  </varray>
  <energy>
   <i name="e_fr_energy">     -8.62534902 </i>
   <i name="e_wo_entrp">     -8.62534902 </i>
   <i name="e_0_energy">     -8.62534902 </i>
  </energy>
  <time name="totalsc">   18.75   20.07</time>
 </calculation>
 <calculation>
  <scstep>
   <time name="dav">    0.17    0.17</time>
   <time name="total">    1.45    1.53</time>
   <energy>
    <i name="alphaZ">      0.09131387 </i>
    <i name="ewald">     17.14274881 </i>
    <i name="hartreedc">    -55.91760015 </i>
    <i name="XCdc">      8.22077917 </i>
    <i name="pawpsdc">     59.77455571 </i>
    <i name="pawaedc">    -59.23362089 </i>
    <i name="eentropy">     -0.00000000 </i>
    <i name="bandstr">    -31.19932249 </i>
    <i name="atom">     52.49568407 </i>
    <i name="e_fr_energy">     -8.62546189 </i>
    <i name="e_wo_entrp">     -8.62546189 </i>
    <i name="e_0_energy">     -8.62546189 </i>
   </energy>
  </scstep>
  <scstep>
   <time name="dav">    0.25    0.25</time>
   <time name="total">    1.46    1.48</time>
   <energy>
    <i name="e_fr_energy">     -8.62544905 </i>
    <i name="e_wo_entrp">     -8.62544905 </i>
    <i name="e_0_energy">     -8.62544905 </i>
   </energy>
  </scstep>
  <scstep>
   <time name="dav">    0.23    0.23</time>
   <time name="total">    1.42    1.44</time>
   <energy>
    <i name="e_fr_energy">     -8.62544060 </i>
    <i name="e_wo_entrp">     -8.62544060 </i>
    <i name="e_0_energy">     -8.62544060 </i>
   </energy>
  </scstep>
  <scstep>
   <time name="dav">    0.18    0.18</time>
   <time name="total">    1.33    1.35</time>
   <energy>
    <i name="e_fr_energy">     -8.62544096 </i>
    <i name="e_wo_entrp">     -8.62544096 </i>
    <i name="e_0_energy">     -8.62544096 </i>
   </energy>
  </scstep>
  <scstep>
   <time name="dav">    0.23    0.24</time>
   <time name="total">    1.41    1.42</time>
   <energy>
    <i name="e_fr_energy">     -8.62544172 </i>
    <i name="e_wo_entrp">     -8.62544172 </i>
    <i name="e_0_energy">     -8.62544172 </i>
   </energy>
  </scstep>
  <scstep>
   <time name="dav">    0.22    0.23</time>
   <time name="total">    1.41    1.42</time>
   <energy>
    <i name="e_fr_energy">     -8.62544229 </i>
    <i name="e_wo_entrp">     -8.62544229 </i>
    <i name="e_0_energy">     -8.62544229 </i>
   </energy>
  </scstep>
  <scstep>
   <time name="dav">    0.21    0.21</time>
   <time name="total">    1.40    1.42</time>
   <energy>
    <i name="e_fr_energy">     -8.62544281 </i>
    <i name="e_wo_entrp">     -8.62544281 </i>
    <i name="e_0_energy">     -8.62544281 </i>
   </energy>
  </scstep>
  <scstep>
   <time name="dav">    0.15    0.15</time>
   <time name="total">    1.34    1.35</time>
   <energy>
    <i name="e_fr_energy">     -8.62544309 </i>
    <i name="e_wo_entrp">     -8.62544309 </i>
    <i name="e_0_energy">     -8.62544309 </i>
   </energy>
  </scstep>
  <scstep>
   <time name="dav">    0.14    0.14</time>
   <time name="total">    1.21    1.22</time>
   <energy>
    <i name="alphaZ">      0.09131387 </i>
    <i name="ewald">     17.14274881 </i>
    <i name="hartreedc">    -55.88252433 </i>
    <i name="XCdc">      8.21735777 </i>
    <i name="pawpsdc">     59.40361512 </i>
    <i name="pawaedc">    -58.86203334 </i>
    <i name="eentropy">     -0.00000000 </i>
    <i name="bandstr">    -31.23160517 </i>
    <i name="atom">     52.49568407 </i>
    <i name="e_fr_energy">     -8.62544318 </i>
    <i name="e_wo_entrp">     -8.62544318 </i>
    <i name="e_0_energy">     -8.62544318 </i>
   </energy>
  </scstep>
  <structure>
   <crystal>
    <varray name="basis" >
     <v>      10.32500005       0.00000000       0.00000000 </v>
     <v>       0.00000000      10.32500005       0.00000000 </v>
     <v>       0.00000000       0.00000000      10.32500005 </v>
    </varray>
    <i name="volume">   1100.70309338 </i>
    <varray name="rec_basis" >
     <v>       0.09685230       0.00000000       0.00000000 </v>
     <v>       0.00000000       0.09685230       0.00000000 </v>
     <v>       0.00000000       0.00000000       0.09685230 </v>
    </varray>
   </crystal>
   <varray name="positions" >
    <v>       0.62971905       0.50000000       0.50000000 </v>
    <v>       0.37028094       0.50000000       0.50000000 </v>
    <v>       0.50000000       0.50000000       0.50000000 </v>
   </varray>
  </structure>
  <varray name="forces" >
   <v>      -0.00098336      -0.00000000       0.00000000 </v>
   <v>       0.00098336      -0.00000000       0.00000000 </v>
   <v>      -0.00000000       0.00000000      -0.00000000 </v>
  </varray>
  <varray name="stress" >
   <v>      -0.03821982      -0.00000000      -0.00000000 </v>
   <v>      -0.00000000      -0.04559733      -0.00000000 </v>
   <v>      -0.00000000       0.00000000      -0.04559733 </v>
  </varray>
  <energy>
   <i name="e_fr_energy">     -8.62544318 </i>
   <i name="e_wo_entrp">     -8.62544318 </i>
   <i name="e_0_energy">     -8.62544318 </i>
  </energy>
  <time name="totalsc">   15.31   16.37</time>
  <eigenvalues>
   <array>
    <dimension dim="1">band</dimension>
    <dimension dim="2">kpoint</dimension>
    <dimension dim="3">spin</dimension>
    <field>eigene</field>
    <field>occ</field>
    <set>
     <set comment="spin 1">
      <set comment="kpoint 1">
       <r>   -8.2709    1.0000 </r>
       <r>   -7.3449    1.0000 </r>
       <r>   -1.4964    0.0000 </r>
       <r>   -1.4964    0.0000 </r>
       <r>   -0.2041    0.0000 </r>
       <r>    0.6545    0.0000 </r>
      </set>
     </set>
    </set>
   </array>
  </eigenvalues>
  <separator name="orbital magnetization" >
   <v name="MAGDIPOLOUT">      0.00000000      0.00000000      0.00000000</v>
  </separator>
  <dos>
   <i name="efermi">     -6.39327066 </i>
   <total>
    <array>
     <dimension dim="1">gridpoints</dimension>
     <dimension dim="2">spin</dimension>
     <field>energy</field>
     <field>total</field>
     <field>integrated</field>
     <set>
      <set comment="spin 1">
       <r>   -10.2709     0.0000     0.0000 </r>
       <r>   -10.2278     0.0000     0.0000 </r>
       <r>   -10.1847     0.0000     0.0000 </r>
       <r>   -10.1416     0.0000     0.0000 </r>
       <r>   -10.0985     0.0000     0.0000 </r>
       <r>   -10.0555     0.0000     0.0000 </r>
       <r>   -10.0124     0.0000     0.0000 </r>
       <r>    -9.9693     0.0000     0.0000 </r>
       <r>    -9.9262     0.0000     0.0000 </r>
       <r>    -9.8831     0.0000     0.0000 </r>
       <r>    -9.8400     0.0000     0.0000 </r>
       <r>    -9.7970     0.0000     0.0000 </r>
       <r>    -9.7539     0.0000     0.0000 </r>
       <r>    -9.7108     0.0000     0.0000 </r>
       <r>    -9.6677     0.0000     0.0000 </r>
       <r>    -9.6246     0.0000     0.0000 </r>
       <r>    -9.5815     0.0000     0.0000 </r>
       <r>    -9.5384     0.0000     0.0000 </r>
       <r>    -9.4954     0.0000     0.0000 </r>
       <r>    -9.4523     0.0000     0.0000 </r>
       <r>    -9.4092     0.0000     0.0000 </r>
       <r>    -9.3661     0.0000     0.0000 </r>
       <r>    -9.3230     0.0000     0.0000 </r>
       <r>    -9.2799     0.0000     0.0000 </r>
       <r>    -9.2369     0.0000     0.0000 </r>
       <r>    -9.1938     0.0000     0.0000 </r>
       <r>    -9.1507     0.0000     0.0000 </r>
       <r>    -9.1076     0.0000     0.0000 </r>
       <r>    -9.0645     0.0000     0.0000 </r>
       <r>    -9.0214     0.0000     0.0000 </r>
       <r>    -8.9783     0.0000     0.0000 </r>
       <r>    -8.9353     0.0000     0.0000 </r>
       <r>    -8.8922     0.0002     0.0000 </r>
       <r>    -8.8491     0.0007     0.0000 </r>
       <r>    -8.8060     0.0026     0.0002 </r>
       <r>    -8.7629     0.0081     0.0005 </r>
       <r>    -8.7198     0.0232     0.0015 </r>
       <r>    -8.6768     0.0605     0.0041 </r>
       <r>    -8.6337     0.1440     0.0103 </r>
       <r>    -8.5906     0.3127     0.0238 </r>
       <r>    -8.5475     0.6194     0.0505 </r>
       <r>    -8.5044     1.1188     0.0987 </r>
       <r>    -8.4613     1.8432     0.1781 </r>
       <r>    -8.4182     2.7694     0.2974 </r>
       <r>    -8.3752     3.7948     0.4609 </r>
       <r>    -8.3321     4.7424     0.6652 </r>
       <r>    -8.2890     5.4052     0.8981 </r>
       <r>    -8.2459     5.6185     1.1402 </r>
       <r>    -8.2028     5.3264     1.3697 </r>
       <r>    -8.1597     4.6052     1.5681 </r>
       <r>    -8.1167     3.6314     1.7245 </r>
       <r>    -8.0736     2.6115     1.8370 </r>
       <r>    -8.0305     1.7128     1.9108 </r>
       <r>    -7.9874     1.0246     1.9550 </r>
       <r>    -7.9443     0.5593     1.9791 </r>
       <r>    -7.9012     0.2795     1.9911 </r>
       <r>    -7.8581     0.1308     1.9968 </r>
       <r>    -7.8151     0.0662     1.9996 </r>
       <r>    -7.7720     0.0579     2.0021 </r>
       <r>    -7.7289     0.1018     2.0065 </r>
       <r>    -7.6858     0.2181     2.0159 </r>
       <r>    -7.6427     0.4483     2.0352 </r>
       <r>    -7.5996     0.8463     2.0717 </r>
       <r>    -7.5566     1.4587     2.1345 </r>
       <r>    -7.5135     2.2931     2.2333 </r>
       <r>    -7.4704     3.2878     2.3750 </r>
       <r>    -7.4273     4.2992     2.5602 </r>
       <r>    -7.3842     5.1271     2.7811 </r>
       <r>    -7.3411     5.5764     3.0214 </r>
       <r>    -7.2980     5.5314     3.2597 </r>
       <r>    -7.2550     5.0041     3.4753 </r>
       <r>    -7.2119     4.1287     3.6532 </r>
       <r>    -7.1688     3.1067     3.7870 </r>
       <r>    -7.1257     2.1320     3.8789 </r>
       <r>    -7.0826     1.3344     3.9364 </r>
       <r>    -7.0395     0.7617     3.9692 </r>
       <r>    -6.9965     0.3965     3.9863 </r>
       <r>    -6.9534     0.1883     3.9944 </r>
       <r>    -6.9103     0.0815     3.9979 </r>
       <r>    -6.8672     0.0322     3.9993 </r>
       <r>    -6.8241     0.0116     3.9998 </r>
       <r>    -6.7810     0.0038     3.9999 </r>
       <r>    -6.7379     0.0011     4.0000 </r>
       <r>    -6.6949     0.0003     4.0000 </r>
       <r>    -6.6518     0.0001     4.0000 </r>
       <r>    -6.6087     0.0000     4.0000 </r>
       <r>    -6.5656     0.0000     4.0000 </r>
       <r>    -6.5225     0.0000     4.0000 </r>
       <r>    -6.4794     0.0000     4.0000 </r>
       <r>    -6.4364     0.0000     4.0000 </r>
       <r>    -6.3933     0.0000     4.0000 </r>
       <r>    -6.3502     0.0000     4.0000 </r>
       <r>    -6.3071     0.0000     4.0000 </r>
       <r>    -6.2640     0.0000     4.0000 </r>
       <r>    -6.2209     0.0000     4.0000 </r>
       <r>    -6.1778     0.0000     4.0000 </r>
       <r>    -6.1348     0.0000     4.0000 </r>
       <r>    -6.0917     0.0000     4.0000 </r>
       <r>    -6.0486     0.0000     4.0000 </r>
       <r>    -6.0055     0.0000     4.0000 </r>
       <r>    -5.9624     0.0000     4.0000 </r>
       <r>    -5.9193     0.0000     4.0000 </r>
       <r>    -5.8763     0.0000     4.0000 </r>
       <r>    -5.8332     0.0000     4.0000 </r>
       <r>    -5.7901     0.0000     4.0000 </r>
       <r>    -5.7470     0.0000     4.0000 </r>
       <r>    -5.7039     0.0000     4.0000 </r>
       <r>    -5.6608     0.0000     4.0000 </r>
       <r>    -5.6177     0.0000     4.0000 </r>
       <r>    -5.5747     0.0000     4.0000 </r>
       <r>    -5.5316     0.0000     4.0000 </r>
       <r>    -5.4885     0.0000     4.0000 </r>
       <r>    -5.4454     0.0000     4.0000 </r>
       <r>    -5.4023     0.0000     4.0000 </r>
       <r>    -5.3592     0.0000     4.0000 </r>
       <r>    -5.3162     0.0000     4.0000 </r>
       <r>    -5.2731     0.0000     4.0000 </r>
       <r>    -5.2300     0.0000     4.0000 </r>
       <r>    -5.1869     0.0000     4.0000 </r>
       <r>    -5.1438     0.0000     4.0000 </r>
       <r>    -5.1007     0.0000     4.0000 </r>
       <r>    -5.0577     0.0000     4.0000 </r>
       <r>    -5.0146     0.0000     4.0000 </r>
       <r>    -4.9715     0.0000     4.0000 </r>
       <r>    -4.9284     0.0000     4.0000 </r>
       <r>    -4.8853     0.0000     4.0000 </r>
       <r>    -4.8422     0.0000     4.0000 </r>
       <r>    -4.7991     0.0000     4.0000 </r>
       <r>    -4.7561     0.0000     4.0000 </r>
       <r>    -4.7130     0.0000     4.0000 </r>
       <r>    -4.6699     0.0000     4.0000 </r>
       <r>    -4.6268     0.0000     4.0000 </r>
       <r>    -4.5837     0.0000     4.0000 </r>
       <r>    -4.5406     0.0000     4.0000 </r>
       <r>    -4.4976     0.0000     4.0000 </r>
       <r>    -4.4545     0.0000     4.0000 </r>
       <r>    -4.4114     0.0000     4.0000 </r>
       <r>    -4.3683     0.0000     4.0000 </r>
       <r>    -4.3252     0.0000     4.0000 </r>
       <r>    -4.2821     0.0000     4.0000 </r>
       <r>    -4.2390     0.0000     4.0000 </r>
       <r>    -4.1960     0.0000     4.0000 </r>
       <r>    -4.1529     0.0000     4.0000 </r>
       <r>    -4.1098     0.0000     4.0000 </r>
       <r>    -4.0667     0.0000     4.0000 </r>
       <r>    -4.0236     0.0000     4.0000 </r>
       <r>    -3.9805     0.0000     4.0000 </r>
       <r>    -3.9375     0.0000     4.0000 </r>
       <r>    -3.8944     0.0000     4.0000 </r>
       <r>    -3.8513     0.0000     4.0000 </r>
       <r>    -3.8082     0.0000     4.0000 </r>
       <r>    -3.7651     0.0000     4.0000 </r>
       <r>    -3.7220     0.0000     4.0000 </r>
       <r>    -3.6789     0.0000     4.0000 </r>
       <r>    -3.6359     0.0000     4.0000 </r>
       <r>    -3.5928     0.0000     4.0000 </r>
       <r>    -3.5497     0.0000     4.0000 </r>
       <r>    -3.5066     0.0000     4.0000 </r>
       <r>    -3.4635     0.0000     4.0000 </r>
       <r>    -3.4204     0.0000     4.0000 </r>
       <r>    -3.3774     0.0000     4.0000 </r>
       <r>    -3.3343     0.0000     4.0000 </r>
       <r>    -3.2912     0.0000     4.0000 </r>
       <r>    -3.2481     0.0000     4.0000 </r>
       <r>    -3.2050     0.0000     4.0000 </r>
       <r>    -3.1619     0.0000     4.0000 </r>
       <r>    -3.1188     0.0000     4.0000 </r>
       <r>    -3.0758     0.0000     4.0000 </r>
       <r>    -3.0327     0.0000     4.0000 </r>
       <r>    -2.9896     0.0000     4.0000 </r>
       <r>    -2.9465     0.0000     4.0000 </r>
       <r>    -2.9034     0.0000     4.0000 </r>
       <r>    -2.8603     0.0000     4.0000 </r>
       <r>    -2.8173     0.0000     4.0000 </r>
       <r>    -2.7742     0.0000     4.0000 </r>
       <r>    -2.7311     0.0000     4.0000 </r>
       <r>    -2.6880     0.0000     4.0000 </r>
       <r>    -2.6449     0.0000     4.0000 </r>
       <r>    -2.6018     0.0000     4.0000 </r>
       <r>    -2.5587     0.0000     4.0000 </r>
       <r>    -2.5157     0.0000     4.0000 </r>
       <r>    -2.4726     0.0000     4.0000 </r>
       <r>    -2.4295     0.0000     4.0000 </r>
       <r>    -2.3864     0.0000     4.0000 </r>
       <r>    -2.3433     0.0000     4.0000 </r>
       <r>    -2.3002     0.0000     4.0000 </r>
       <r>    -2.2572     0.0000     4.0000 </r>
       <r>    -2.2141     0.0000     4.0000 </r>
       <r>    -2.1710     0.0001     4.0000 </r>
       <r>    -2.1279     0.0003     4.0000 </r>
       <r>    -2.0848     0.0011     4.0001 </r>
       <r>    -2.0417     0.0039     4.0002 </r>
       <r>    -1.9986     0.0124     4.0008 </r>
       <r>    -1.9556     0.0364     4.0023 </r>
       <r>    -1.9125     0.0970     4.0065 </r>
       <r>    -1.8694     0.2362     4.0167 </r>
       <r>    -1.8263     0.5244     4.0393 </r>
       <r>    -1.7832     1.0616     4.0850 </r>
       <r>    -1.7401     1.9602     4.1695 </r>
       <r>    -1.6971     3.3009     4.3117 </r>
       <r>    -1.6540     5.0695     4.5301 </r>
       <r>    -1.6109     7.1005     4.8360 </r>
       <r>    -1.5678     9.0702     5.2268 </r>
       <r>    -1.5247    10.5669     5.6821 </r>
       <r>    -1.4816    11.2273     6.1658 </r>
       <r>    -1.4385    10.8795     6.6346 </r>
       <r>    -1.3955     9.6149     7.0488 </r>
       <r>    -1.3524     7.7496     7.3827 </r>
       <r>    -1.3093     5.6966     7.6281 </r>
       <r>    -1.2662     3.8191     7.7927 </r>
       <r>    -1.2231     2.3350     7.8933 </r>
       <r>    -1.1800     1.3021     7.9494 </r>
       <r>    -1.1370     0.6622     7.9779 </r>
       <r>    -1.0939     0.3071     7.9911 </r>
       <r>    -1.0508     0.1299     7.9967 </r>
       <r>    -1.0077     0.0501     7.9989 </r>
       <r>    -0.9646     0.0176     7.9997 </r>
       <r>    -0.9215     0.0057     7.9999 </r>
       <r>    -0.8784     0.0017     8.0000 </r>
       <r>    -0.8354     0.0006     8.0000 </r>
       <r>    -0.7923     0.0007     8.0000 </r>
       <r>    -0.7492     0.0020     8.0001 </r>
       <r>    -0.7061     0.0063     8.0004 </r>
       <r>    -0.6630     0.0183     8.0012 </r>
       <r>    -0.6199     0.0488     8.0033 </r>
       <r>    -0.5769     0.1188     8.0084 </r>
       <r>    -0.5338     0.2636     8.0198 </r>
       <r>    -0.4907     0.5333     8.0427 </r>
       <r>    -0.4476     0.9841     8.0851 </r>
       <r>    -0.4045     1.6561     8.1565 </r>
       <r>    -0.3614     2.5417     8.2660 </r>
       <r>    -0.3183     3.5577     8.4193 </r>
       <r>    -0.2753     4.5416     8.6150 </r>
       <r>    -0.2322     5.2875     8.8428 </r>
       <r>    -0.1891     5.6142     9.0846 </r>
       <r>    -0.1460     5.4367     9.3189 </r>
       <r>    -0.1029     4.8016     9.5258 </r>
       <r>    -0.0598     3.8675     9.6924 </r>
       <r>    -0.0168     2.8411     9.8148 </r>
       <r>     0.0263     1.9036     9.8968 </r>
       <r>     0.0694     1.1636     9.9469 </r>
       <r>     0.1125     0.6502     9.9750 </r>
       <r>     0.1556     0.3361     9.9894 </r>
       <r>     0.1987     0.1724     9.9969 </r>
       <r>     0.2418     0.1167    10.0019 </r>
       <r>     0.2848     0.1510    10.0084 </r>
       <r>     0.3279     0.2868    10.0208 </r>
       <r>     0.3710     0.5617    10.0450 </r>
       <r>     0.4141     1.0253    10.0891 </r>
       <r>     0.4572     1.7130    10.1629 </r>
       <r>     0.5003     2.6115    10.2755 </r>
       <r>     0.5433     3.6314    10.4319 </r>
       <r>     0.5864     4.6052    10.6303 </r>
       <r>     0.6295     5.3264    10.8598 </r>
       <r>     0.6726     5.6185    11.1019 </r>
       <r>     0.7157     5.4052    11.3348 </r>
       <r>     0.7588     4.7424    11.5391 </r>
       <r>     0.8019     3.7948    11.7026 </r>
       <r>     0.8449     2.7694    11.8219 </r>
       <r>     0.8880     1.8432    11.9013 </r>
       <r>     0.9311     1.1188    11.9495 </r>
       <r>     0.9742     0.6194    11.9762 </r>
       <r>     1.0173     0.3127    11.9897 </r>
       <r>     1.0604     0.1440    11.9959 </r>
       <r>     1.1034     0.0605    11.9985 </r>
       <r>     1.1465     0.0232    11.9995 </r>
       <r>     1.1896     0.0081    11.9998 </r>
       <r>     1.2327     0.0026    12.0000 </r>
       <r>     1.2758     0.0007    12.0000 </r>
       <r>     1.3189     0.0002    12.0000 </r>
       <r>     1.3620     0.0000    12.0000 </r>
       <r>     1.4050     0.0000    12.0000 </r>
       <r>     1.4481     0.0000    12.0000 </r>
       <r>     1.4912     0.0000    12.0000 </r>
       <r>     1.5343     0.0000    12.0000 </r>
       <r>     1.5774     0.0000    12.0000 </r>
       <r>     1.6205     0.0000    12.0000 </r>
       <r>     1.6635     0.0000    12.0000 </r>
       <r>     1.7066     0.0000    12.0000 </r>
       <r>     1.7497     0.0000    12.0000 </r>
       <r>     1.7928     0.0000    12.0000 </r>
       <r>     1.8359     0.0000    12.0000 </r>
       <r>     1.8790     0.0000    12.0000 </r>
       <r>     1.9221     0.0000    12.0000 </r>
       <r>     1.9651     0.0000    12.0000 </r>
       <r>     2.0082     0.0000    12.0000 </r>
       <r>     2.0513     0.0000    12.0000 </r>
       <r>     2.0944     0.0000    12.0000 </r>
       <r>     2.1375     0.0000    12.0000 </r>
       <r>     2.1806     0.0000    12.0000 </r>
       <r>     2.2236     0.0000    12.0000 </r>
       <r>     2.2667     0.0000    12.0000 </r>
       <r>     2.3098     0.0000    12.0000 </r>
       <r>     2.3529     0.0000    12.0000 </r>
       <r>     2.3960     0.0000    12.0000 </r>
       <r>     2.4391     0.0000    12.0000 </r>
       <r>     2.4822     0.0000    12.0000 </r>
       <r>     2.5252     0.0000    12.0000 </r>
       <r>     2.5683     0.0000    12.0000 </r>
       <r>     2.6114     0.0000    12.0000 </r>
       <r>     2.6545     0.0000    12.0000 </r>
      </set>
     </set>
    </array>
   </total>
  </dos>
 </calculation>
 <structure name="finalpos" >
  <crystal>
   <varray name="basis" >
    <v>      10.32500005       0.00000000       0.00000000 </v>
    <v>       0.00000000      10.32500005       0.00000000 </v>
    <v>       0.00000000       0.00000000      10.32500005 </v>
   </varray>
   <i name="volume">   1100.70309338 </i>
   <varray name="rec_basis" >
    <v>       0.09685230       0.00000000       0.00000000 </v>
    <v>       0.00000000       0.09685230       0.00000000 </v>
    <v>       0.00000000       0.00000000       0.09685230 </v>
   </varray>
  </crystal>
  <varray name="positions" >
   <v>       0.62971905       0.50000000       0.50000000 </v>
   <v>       0.37028094       0.50000000       0.50000000 </v>
   <v>       0.50000000       0.50000000       0.50000000 </v>
  </varray>
 </structure>
</modeling>
