unknown system                          
           1
    10.325000    0.000000    0.000000
     0.000000   10.325000    0.000000
     0.000000    0.000000   10.325000
   H    Be
     2     1
Direct configuration=     1
   0.62881355  0.50000000  0.50000000
   0.37118644  0.50000000  0.50000000
   0.50000000  0.50000000  0.50000000
Direct configuration=     2
   0.62946621  0.50000000  0.50000000
   0.37053378  0.50000000  0.50000000
   0.50000000  0.50000000  0.50000000
Direct configuration=     3
   0.62971905  0.50000000  0.50000000
   0.37028094  0.50000000  0.50000000
   0.50000000  0.50000000  0.50000000
