   1   1   0   0
  0.1000000E+04  0.1000000E-08  0.1000000E-08  0.1000000E-08  0.5000000E-15
   1.0000000000000000E-004
  CAR 
 unknown system                          
      2.97597986     -8.46355213  301     -6.46341444      1.00000000
     -8.464  0.0000E+00  0.0000E+00
     -8.425  0.0000E+00  0.0000E+00
     -8.387  0.0000E+00  0.0000E+00
     -8.349  0.0000E+00  0.0000E+00
     -8.311  0.0000E+00  0.0000E+00
     -8.273  0.0000E+00  0.0000E+00
     -8.235  0.0000E+00  0.0000E+00
     -8.197  0.0000E+00  0.0000E+00
     -8.158  0.0000E+00  0.0000E+00
     -8.120  0.0000E+00  0.0000E+00
     -8.082  0.0000E+00  0.0000E+00
     -8.044  0.0000E+00  0.0000E+00
     -8.006  0.0000E+00  0.0000E+00
     -7.968  0.0000E+00  0.0000E+00
     -7.930  0.0000E+00  0.0000E+00
     -7.892  0.0000E+00  0.0000E+00
     -7.853  0.0000E+00  0.0000E+00
     -7.815  0.0000E+00  0.0000E+00
     -7.777  0.0000E+00  0.0000E+00
     -7.739  0.0000E+00  0.0000E+00
     -7.701  0.0000E+00  0.0000E+00
     -7.663  0.0000E+00  0.0000E+00
     -7.625  0.5823E-16  0.2220E-17
     -7.587  0.4658E-15  0.1998E-16
     -7.548  0.3919E-14  0.1694E-15
     -7.510  0.3066E-13  0.1338E-14
     -7.472  0.2231E-12  0.9844E-14
     -7.434  0.1510E-11  0.6741E-13
     -7.396  0.9505E-11  0.4299E-12
     -7.358  0.5567E-10  0.2553E-11
     -7.320  0.3033E-09  0.1412E-10
     -7.281  0.1537E-08  0.7273E-10
     -7.243  0.7246E-08  0.3490E-09
     -7.205  0.3178E-07  0.1561E-08
     -7.167  0.1296E-06  0.6504E-08
     -7.129  0.4920E-06  0.2527E-07
     -7.091  0.1737E-05  0.9150E-07
     -7.053  0.5705E-05  0.3090E-06
     -7.015  0.1743E-04  0.9736E-06
     -6.976  0.4953E-04  0.2862E-05
     -6.938  0.1310E-03  0.7856E-05
     -6.900  0.3221E-03  0.2014E-04
     -6.862  0.7370E-03  0.4824E-04
     -6.824  0.1569E-02  0.1081E-03
     -6.786  0.3106E-02  0.2265E-03
     -6.748  0.5722E-02  0.4447E-03
     -6.709  0.9805E-02  0.8186E-03
     -6.671  0.1563E-01  0.1415E-02
     -6.633  0.2318E-01  0.2298E-02
     -6.595  0.3198E-01  0.3518E-02
     -6.557  0.4104E-01  0.5083E-02
     -6.519  0.4901E-01  0.6952E-02
     -6.481  0.5443E-01  0.9027E-02
     -6.443  0.5624E-01  0.1117E-01
     -6.404  0.5407E-01  0.1323E-01
     -6.366  0.4835E-01  0.1508E-01
     -6.328  0.4022E-01  0.1661E-01
     -6.290  0.3113E-01  0.1780E-01
     -6.252  0.2241E-01  0.1865E-01
     -6.214  0.1501E-01  0.1922E-01
     -6.176  0.9352E-02  0.1958E-01
     -6.138  0.5421E-02  0.1979E-01
     -6.099  0.2923E-02  0.1990E-01
     -6.061  0.1466E-02  0.1996E-01
     -6.023  0.6843E-03  0.1998E-01
     -5.985  0.2970E-03  0.1999E-01
     -5.947  0.1200E-03  0.2000E-01
     -5.909  0.4507E-04  0.2000E-01
     -5.871  0.1575E-04  0.2000E-01
     -5.832  0.5121E-05  0.2000E-01
     -5.794  0.1549E-05  0.2000E-01
     -5.756  0.4357E-06  0.2000E-01
     -5.718  0.1140E-06  0.2000E-01
     -5.680  0.2777E-07  0.2000E-01
     -5.642  0.6288E-08  0.2000E-01
     -5.604  0.1325E-08  0.2000E-01
     -5.566  0.2597E-09  0.2000E-01
     -5.527  0.4734E-10  0.2000E-01
     -5.489  0.8029E-11  0.2000E-01
     -5.451  0.1267E-11  0.2000E-01
     -5.413  0.1859E-12  0.2000E-01
     -5.375  0.2540E-13  0.2000E-01
     -5.337  0.3164E-14  0.2000E-01
     -5.299  0.4076E-15  0.2000E-01
     -5.260  0.5823E-16  0.2000E-01
     -5.222  0.0000E+00  0.2000E-01
     -5.184  0.0000E+00  0.2000E-01
     -5.146  0.0000E+00  0.2000E-01
     -5.108  0.0000E+00  0.2000E-01
     -5.070  0.0000E+00  0.2000E-01
     -5.032  0.0000E+00  0.2000E-01
     -4.994  0.0000E+00  0.2000E-01
     -4.955  0.0000E+00  0.2000E-01
     -4.917  0.0000E+00  0.2000E-01
     -4.879  0.0000E+00  0.2000E-01
     -4.841  0.0000E+00  0.2000E-01
     -4.803  0.0000E+00  0.2000E-01
     -4.765  0.0000E+00  0.2000E-01
     -4.727  0.0000E+00  0.2000E-01
     -4.689  0.0000E+00  0.2000E-01
     -4.650  0.0000E+00  0.2000E-01
     -4.612  0.0000E+00  0.2000E-01
     -4.574  0.0000E+00  0.2000E-01
     -4.536  0.0000E+00  0.2000E-01
     -4.498  0.0000E+00  0.2000E-01
     -4.460  0.0000E+00  0.2000E-01
     -4.422  0.0000E+00  0.2000E-01
     -4.383  0.0000E+00  0.2000E-01
     -4.345  0.0000E+00  0.2000E-01
     -4.307  0.0000E+00  0.2000E-01
     -4.269  0.0000E+00  0.2000E-01
     -4.231  0.0000E+00  0.2000E-01
     -4.193  0.0000E+00  0.2000E-01
     -4.155  0.0000E+00  0.2000E-01
     -4.117  0.0000E+00  0.2000E-01
     -4.078  0.0000E+00  0.2000E-01
     -4.040  0.0000E+00  0.2000E-01
     -4.002  0.0000E+00  0.2000E-01
     -3.964  0.0000E+00  0.2000E-01
     -3.926  0.0000E+00  0.2000E-01
     -3.888  0.0000E+00  0.2000E-01
     -3.850  0.0000E+00  0.2000E-01
     -3.811  0.0000E+00  0.2000E-01
     -3.773  0.0000E+00  0.2000E-01
     -3.735  0.0000E+00  0.2000E-01
     -3.697  0.0000E+00  0.2000E-01
     -3.659  0.0000E+00  0.2000E-01
     -3.621  0.0000E+00  0.2000E-01
     -3.583  0.0000E+00  0.2000E-01
     -3.545  0.0000E+00  0.2000E-01
     -3.506  0.0000E+00  0.2000E-01
     -3.468  0.0000E+00  0.2000E-01
     -3.430  0.0000E+00  0.2000E-01
     -3.392  0.0000E+00  0.2000E-01
     -3.354  0.0000E+00  0.2000E-01
     -3.316  0.0000E+00  0.2000E-01
     -3.278  0.0000E+00  0.2000E-01
     -3.239  0.0000E+00  0.2000E-01
     -3.201  0.0000E+00  0.2000E-01
     -3.163  0.0000E+00  0.2000E-01
     -3.125  0.0000E+00  0.2000E-01
     -3.087  0.0000E+00  0.2000E-01
     -3.049  0.0000E+00  0.2000E-01
     -3.011  0.0000E+00  0.2000E-01
     -2.973  0.0000E+00  0.2000E-01
     -2.934  0.0000E+00  0.2000E-01
     -2.896  0.0000E+00  0.2000E-01
     -2.858  0.0000E+00  0.2000E-01
     -2.820  0.0000E+00  0.2000E-01
     -2.782  0.0000E+00  0.2000E-01
     -2.744  0.0000E+00  0.2000E-01
     -2.706  0.0000E+00  0.2000E-01
     -2.668  0.0000E+00  0.2000E-01
     -2.629  0.0000E+00  0.2000E-01
     -2.591  0.0000E+00  0.2000E-01
     -2.553  0.0000E+00  0.2000E-01
     -2.515  0.0000E+00  0.2000E-01
     -2.477  0.0000E+00  0.2000E-01
     -2.439  0.0000E+00  0.2000E-01
     -2.401  0.0000E+00  0.2000E-01
     -2.362  0.0000E+00  0.2000E-01
     -2.324  0.0000E+00  0.2000E-01
     -2.286  0.0000E+00  0.2000E-01
     -2.248  0.0000E+00  0.2000E-01
     -2.210  0.0000E+00  0.2000E-01
     -2.172  0.0000E+00  0.2000E-01
     -2.134  0.0000E+00  0.2000E-01
     -2.096  0.0000E+00  0.2000E-01
     -2.057  0.0000E+00  0.2000E-01
     -2.019  0.0000E+00  0.2000E-01
     -1.981  0.0000E+00  0.2000E-01
     -1.943  0.0000E+00  0.2000E-01
     -1.905  0.0000E+00  0.2000E-01
     -1.867  0.0000E+00  0.2000E-01
     -1.829  0.0000E+00  0.2000E-01
     -1.790  0.0000E+00  0.2000E-01
     -1.752  0.0000E+00  0.2000E-01
     -1.714  0.0000E+00  0.2000E-01
     -1.676  0.0000E+00  0.2000E-01
     -1.638  0.0000E+00  0.2000E-01
     -1.600  0.0000E+00  0.2000E-01
     -1.562  0.0000E+00  0.2000E-01
     -1.524  0.0000E+00  0.2000E-01
     -1.485  0.0000E+00  0.2000E-01
     -1.447  0.0000E+00  0.2000E-01
     -1.409  0.0000E+00  0.2000E-01
     -1.371  0.6039E-19  0.2000E-01
     -1.333  0.1501E-17  0.2000E-01
     -1.295  0.1492E-16  0.2000E-01
     -1.257  0.1233E-15  0.2000E-01
     -1.219  0.9792E-15  0.2000E-01
     -1.180  0.7219E-14  0.2000E-01
     -1.142  0.4958E-13  0.2000E-01
     -1.104  0.3174E-12  0.2000E-01
     -1.066  0.1894E-11  0.2000E-01
     -1.028  0.1054E-10  0.2000E-01
     -0.990  0.5471E-10  0.2000E-01
     -0.952  0.2648E-09  0.2000E-01
     -0.913  0.1196E-08  0.2000E-01
     -0.875  0.5041E-08  0.2000E-01
     -0.837  0.1983E-07  0.2000E-01
     -0.799  0.7286E-07  0.2000E-01
     -0.761  0.2501E-06  0.2000E-01
     -0.723  0.8020E-06  0.2000E-01
     -0.685  0.2405E-05  0.2000E-01
     -0.647  0.6746E-05  0.2000E-01
     -0.608  0.1771E-04  0.2000E-01
     -0.570  0.4356E-04  0.2000E-01
     -0.532  0.1005E-03  0.2001E-01
     -0.494  0.2174E-03  0.2001E-01
     -0.456  0.4418E-03  0.2003E-01
     -0.418  0.8449E-03  0.2006E-01
     -0.380  0.1522E-02  0.2012E-01
     -0.341  0.2588E-02  0.2022E-01
     -0.303  0.4161E-02  0.2038E-01
     -0.265  0.6343E-02  0.2062E-01
     -0.227  0.9191E-02  0.2097E-01
     -0.189  0.1270E-01  0.2146E-01
     -0.151  0.1680E-01  0.2210E-01
     -0.113  0.2136E-01  0.2291E-01
     -0.075  0.2621E-01  0.2391E-01
     -0.036  0.3119E-01  0.2510E-01
      0.002  0.3616E-01  0.2648E-01
      0.040  0.4105E-01  0.2804E-01
      0.078  0.4580E-01  0.2979E-01
      0.116  0.5040E-01  0.3171E-01
      0.154  0.5479E-01  0.3380E-01
      0.192  0.5892E-01  0.3605E-01
      0.230  0.6266E-01  0.3844E-01
      0.269  0.6586E-01  0.4095E-01
      0.307  0.6837E-01  0.4356E-01
      0.345  0.7012E-01  0.4623E-01
      0.383  0.7108E-01  0.4894E-01
      0.421  0.7133E-01  0.5166E-01
      0.459  0.7098E-01  0.5437E-01
      0.497  0.7012E-01  0.5704E-01
      0.536  0.6878E-01  0.5966E-01
      0.574  0.6691E-01  0.6221E-01
      0.612  0.6440E-01  0.6467E-01
      0.650  0.6115E-01  0.6700E-01
      0.688  0.5710E-01  0.6918E-01
      0.726  0.5229E-01  0.7117E-01
      0.764  0.4685E-01  0.7296E-01
      0.802  0.4095E-01  0.7452E-01
      0.841  0.3486E-01  0.7585E-01
      0.879  0.2881E-01  0.7695E-01
      0.917  0.2306E-01  0.7783E-01
      0.955  0.1782E-01  0.7851E-01
      0.993  0.1325E-01  0.7901E-01
      1.031  0.9448E-02  0.7937E-01
      1.069  0.6443E-02  0.7962E-01
      1.108  0.4189E-02  0.7978E-01
      1.146  0.2590E-02  0.7988E-01
      1.184  0.1519E-02  0.7994E-01
      1.222  0.8435E-03  0.7997E-01
      1.260  0.4424E-03  0.7998E-01
      1.298  0.2189E-03  0.7999E-01
      1.336  0.1020E-03  0.8000E-01
      1.374  0.4471E-04  0.8000E-01
      1.413  0.1841E-04  0.8000E-01
      1.451  0.7115E-05  0.8000E-01
      1.489  0.2579E-05  0.8000E-01
      1.527  0.8757E-06  0.8000E-01
      1.565  0.2784E-06  0.8000E-01
      1.603  0.8285E-07  0.8000E-01
      1.641  0.2306E-07  0.8000E-01
      1.679  0.5998E-08  0.8000E-01
      1.718  0.1458E-08  0.8000E-01
      1.756  0.3310E-09  0.8000E-01
      1.794  0.7019E-10  0.8000E-01
      1.832  0.1389E-10  0.8000E-01
      1.870  0.2566E-11  0.8000E-01
      1.908  0.4422E-12  0.8000E-01
      1.946  0.7110E-13  0.8000E-01
      1.985  0.1066E-13  0.8000E-01
      2.023  0.1491E-14  0.8000E-01
      2.061  0.1942E-15  0.8000E-01
      2.099  0.2319E-16  0.8000E-01
      2.137  0.2174E-17  0.8000E-01
      2.175  0.1035E-18  0.8000E-01
      2.213  0.0000E+00  0.8000E-01
      2.251  0.0000E+00  0.8000E-01
      2.290  0.0000E+00  0.8000E-01
      2.328  0.0000E+00  0.8000E-01
      2.366  0.0000E+00  0.8000E-01
      2.404  0.0000E+00  0.8000E-01
      2.442  0.0000E+00  0.8000E-01
      2.480  0.0000E+00  0.8000E-01
      2.518  0.0000E+00  0.8000E-01
      2.557  0.0000E+00  0.8000E-01
      2.595  0.0000E+00  0.8000E-01
      2.633  0.0000E+00  0.8000E-01
      2.671  0.0000E+00  0.8000E-01
      2.709  0.0000E+00  0.8000E-01
      2.747  0.0000E+00  0.8000E-01
      2.785  0.0000E+00  0.8000E-01
      2.823  0.0000E+00  0.8000E-01
      2.862  0.0000E+00  0.8000E-01
      2.900  0.0000E+00  0.8000E-01
      2.938  0.0000E+00  0.8000E-01
      2.976  0.0000E+00  0.8000E-01
