    1    1  100    1
  0.1000000E+04  0.1000000E-08  0.1000000E-08  0.1000000E-08  0.5000000E-15
   1.0000000000000000E-004
  CAR 
 unknown system                          
      1    120      4

  0.1262379E-14  0.1262379E-14  0.1262379E-14  0.2962963E-03
    1       -6.463543   0.500364
    2       -0.193136   0.000000
    3        0.848813   0.000000
    4        0.848813   0.000000

  0.6666667E-01  0.1262379E-14  0.1262379E-14  0.1777778E-02
    1       -6.463552   0.500388
    2       -0.187595   0.000000
    3        0.801013   0.000000
    4        0.853112   0.000000

  0.1333333E+00  0.1262379E-14  0.1262379E-14  0.1777778E-02
    1       -6.463521   0.500301
    2       -0.170984   0.000000
    3        0.697649   0.000000
    4        0.865695   0.000000

  0.2000000E+00  0.1262379E-14  0.1262379E-14  0.1777778E-02
    1       -6.463501   0.500243
    2       -0.143342   0.000000
    3        0.580362   0.000000
    4        0.885539   0.000000

  0.2666667E+00  0.1262379E-14  0.1262379E-14  0.1777778E-02
    1       -6.463473   0.500165
    2       -0.104745   0.000000
    3        0.464177   0.000000
    4        0.910659   0.000000

  0.3333333E+00  0.1262379E-14  0.1262379E-14  0.1777778E-02
    1       -6.463478   0.500180
    2       -0.055347   0.000000
    3        0.354451   0.000000
    4        0.937704   0.000000

  0.4000000E+00  0.1262379E-14  0.1262379E-14  0.1777778E-02
    1       -6.463454   0.500112
    2        0.004453   0.000000
    3        0.253696   0.000000
    4        0.961583   0.000000

  0.4666667E+00  0.1262379E-14  0.1262379E-14  0.1777778E-02
    1       -6.463447   0.500093
    2        0.072041   0.000000
    3        0.165448   0.000000
    4        0.975980   0.000000

  0.6666667E-01  0.6666667E-01  0.1262379E-14  0.3555556E-02
    1       -6.463545   0.500368
    2       -0.182055   0.000000
    3        0.790788   0.000000
    4        0.821449   0.000000

  0.1333333E+00  0.6666667E-01  0.1262379E-14  0.7111111E-02
    1       -6.463514   0.500282
    2       -0.165447   0.000000
    3        0.698652   0.000000
    4        0.825348   0.000000

  0.2000000E+00  0.6666667E-01  0.1262379E-14  0.7111111E-02
    1       -6.463499   0.500238
    2       -0.137812   0.000000
    3        0.583346   0.000000
    4        0.845718   0.000000

  0.2666667E+00  0.6666667E-01  0.1262379E-14  0.7111111E-02
    1       -6.463483   0.500192
    2       -0.099227   0.000000
    3        0.468093   0.000000
    4        0.872755   0.000000

  0.3333333E+00  0.6666667E-01  0.1262379E-14  0.7111111E-02
    1       -6.463466   0.500145
    2       -0.049845   0.000000
    3        0.358895   0.000000
    4        0.902731   0.000000

  0.4000000E+00  0.6666667E-01  0.1262379E-14  0.7111111E-02
    1       -6.463444   0.500084
    2        0.009943   0.000000
    3        0.258437   0.000000
    4        0.930122   0.000000

  0.4666667E+00  0.6666667E-01  0.1262379E-14  0.7111111E-02
    1       -6.463439   0.500069
    2        0.077658   0.000000
    3        0.170190   0.000000
    4        0.947438   0.000000

  0.1333333E+00  0.1333333E+00  0.1262379E-14  0.3555556E-02
    1       -6.463498   0.500236
    2       -0.148850   0.000000
    3        0.679433   0.000000
    4        0.760560   0.000000

  0.2000000E+00  0.1333333E+00  0.1262379E-14  0.7111111E-02
    1       -6.463483   0.500194
    2       -0.121237   0.000000
    3        0.588424   0.000000
    4        0.760870   0.000000

  0.2666667E+00  0.1333333E+00  0.1262379E-14  0.7111111E-02
    1       -6.463467   0.500149
    2       -0.082696   0.000000
    3        0.478628   0.000000
    4        0.787255   0.000000

  0.3333333E+00  0.1333333E+00  0.1262379E-14  0.7111111E-02
    1       -6.463459   0.500126
    2       -0.033380   0.000000
    3        0.371731   0.000000
    4        0.820961   0.000000

  0.4000000E+00  0.1333333E+00  0.1262379E-14  0.7111111E-02
    1       -6.463452   0.500105
    2        0.026343   0.000000
    3        0.272438   0.000000
    4        0.854321   0.000000

  0.4666667E+00  0.1333333E+00  0.1262379E-14  0.7111111E-02
    1       -6.463432   0.500050
    2        0.094366   0.000000
    3        0.184359   0.000000
    4        0.876714   0.000000

  0.2000000E+00  0.2000000E+00  0.1262379E-14  0.3555556E-02
    1       -6.463473   0.500167
    2       -0.093677   0.000000
    3        0.568973   0.000000
    4        0.693688   0.000000

  0.2666667E+00  0.2000000E+00  0.1262379E-14  0.7111111E-02
    1       -6.463457   0.500120
    2       -0.055232   0.000000
    3        0.489440   0.000000
    4        0.694135   0.000000

  0.3333333E+00  0.2000000E+00  0.1262379E-14  0.7111111E-02
    1       -6.463443   0.500081
    2       -0.006079   0.000000
    3        0.390832   0.000000
    4        0.724907   0.000000

  0.4000000E+00  0.2000000E+00  0.1262379E-14  0.7111111E-02
    1       -6.463432   0.500050
    2        0.053433   0.000000
    3        0.294847   0.000000
    4        0.761792   0.000000

  0.4666667E+00  0.2000000E+00  0.1262379E-14  0.7111111E-02
    1       -6.463433   0.500052
    2        0.121697   0.000000
    3        0.207720   0.000000
    4        0.789224   0.000000

  0.2666667E+00  0.2666667E+00  0.1262379E-14  0.3555556E-02
    1       -6.463443   0.500080
    2       -0.016979   0.000000
    3        0.475073   0.000000
    4        0.633529   0.000000

  0.3333333E+00  0.2666667E+00  0.1262379E-14  0.7111111E-02
    1       -6.463434   0.500055
    2        0.031832   0.000000
    3        0.408969   0.000000
    4        0.636468   0.000000

  0.4000000E+00  0.2666667E+00  0.1262379E-14  0.7111111E-02
    1       -6.463418   0.500010
    2        0.090803   0.000000
    3        0.323239   0.000000
    4        0.669136   0.000000

  0.4666667E+00  0.2666667E+00  0.1262379E-14  0.7111111E-02
    1       -6.463413   0.499997
    2        0.158745   0.000000
    3        0.239546   0.000000
    4        0.699268   0.000000

  0.3333333E+00  0.3333333E+00  0.1262379E-14  0.3555556E-02
    1       -6.463423   0.500024
    2        0.079983   0.000000
    3        0.402679   0.000000
    4        0.584262   0.000000

  0.4000000E+00  0.3333333E+00  0.1262379E-14  0.7111111E-02
    1       -6.463408   0.499981
    2        0.137759   0.000000
    3        0.350129   0.000000
    4        0.589354   0.000000

  0.4666667E+00  0.3333333E+00  0.1262379E-14  0.7111111E-02
    1       -6.463397   0.499951
    2        0.203908   0.000000
    3        0.277566   0.000000
    4        0.614902   0.000000

  0.4000000E+00  0.4000000E+00  0.1262379E-14  0.3555556E-02
    1       -6.463395   0.499945
    2        0.193071   0.000000
    3        0.353736   0.000000
    4        0.544189   0.000000

  0.4666667E+00  0.4000000E+00  0.1262379E-14  0.7111111E-02
    1       -6.463395   0.499945
    2        0.254177   0.000000
    3        0.314383   0.000000
    4        0.543998   0.000000

  0.4666667E+00  0.4666667E+00  0.1262379E-14  0.3555556E-02
    1       -6.463397   0.499950
    2        0.302400   0.000000
    3        0.329095   0.000000
    4        0.501540   0.000000

  0.6666667E-01  0.6666667E-01  0.6666667E-01  0.2370370E-02
    1       -6.463542   0.500359
    2       -0.176516   0.000000
    3        0.795417   0.000000
    4        0.795418   0.000000

  0.1333333E+00  0.6666667E-01  0.6666667E-01  0.7111111E-02
    1       -6.463512   0.500274
    2       -0.159911   0.000000
    3        0.700594   0.000000
    4        0.809011   0.000000

  0.2000000E+00  0.6666667E-01  0.6666667E-01  0.7111111E-02
    1       -6.463499   0.500239
    2       -0.132283   0.000000
    3        0.586533   0.000000
    4        0.830593   0.000000

  0.2666667E+00  0.6666667E-01  0.6666667E-01  0.7111111E-02
    1       -6.463481   0.500188
    2       -0.093710   0.000000
    3        0.472074   0.000000
    4        0.858223   0.000000

  0.3333333E+00  0.6666667E-01  0.6666667E-01  0.7111111E-02
    1       -6.463465   0.500142
    2       -0.044346   0.000000
    3        0.363366   0.000000
    4        0.888452   0.000000

  0.4000000E+00  0.6666667E-01  0.6666667E-01  0.7111111E-02
    1       -6.463445   0.500087
    2        0.015428   0.000000
    3        0.263191   0.000000
    4        0.915693   0.000000

  0.4666667E+00  0.6666667E-01  0.6666667E-01  0.7111111E-02
    1       -6.463438   0.500067
    2        0.083265   0.000000
    3        0.174948   0.000000
    4        0.932447   0.000000

  0.1333333E+00  0.1333333E+00  0.6666667E-01  0.7111111E-02
    1       -6.463498   0.500237
    2       -0.143317   0.000000
    3        0.684423   0.000000
    4        0.751952   0.000000

  0.2000000E+00  0.1333333E+00  0.6666667E-01  0.1422222E-01
    1       -6.463482   0.500190
    2       -0.115713   0.000000
    3        0.592431   0.000000
    4        0.756110   0.000000

  0.2666667E+00  0.1333333E+00  0.6666667E-01  0.1422222E-01
    1       -6.463468   0.500151
    2       -0.077185   0.000000
    3        0.482842   0.000000
    4        0.783443   0.000000

  0.3333333E+00  0.1333333E+00  0.6666667E-01  0.1422222E-01
    1       -6.463449   0.500098
    2       -0.027891   0.000000
    3        0.376288   0.000000
    4        0.816979   0.000000

  0.4000000E+00  0.1333333E+00  0.6666667E-01  0.1422222E-01
    1       -6.463448   0.500094
    2        0.031813   0.000000
    3        0.277237   0.000000
    4        0.849400   0.000000

  0.4666667E+00  0.1333333E+00  0.6666667E-01  0.1422222E-01
    1       -6.463440   0.500073
    2        0.099938   0.000000
    3        0.189166   0.000000
    4        0.870634   0.000000

  0.2000000E+00  0.2000000E+00  0.6666667E-01  0.7111111E-02
    1       -6.463459   0.500126
    2       -0.088162   0.000000
    3        0.574166   0.000000
    4        0.690750   0.000000

  0.2666667E+00  0.2000000E+00  0.6666667E-01  0.1422222E-01
    1       -6.463453   0.500109
    2       -0.049734   0.000000
    3        0.494185   0.000000
    4        0.692918   0.000000

  0.3333333E+00  0.2000000E+00  0.6666667E-01  0.1422222E-01
    1       -6.463436   0.500060
    2       -0.000606   0.000000
    3        0.395566   0.000000
    4        0.724040   0.000000

  0.4000000E+00  0.2000000E+00  0.6666667E-01  0.1422222E-01
    1       -6.463426   0.500032
    2        0.058878   0.000000
    3        0.299725   0.000000
    4        0.760309   0.000000

  0.4666667E+00  0.2000000E+00  0.6666667E-01  0.1422222E-01
    1       -6.463428   0.500037
    2        0.127211   0.000000
    3        0.212607   0.000000
    4        0.786717   0.000000

  0.2666667E+00  0.2666667E+00  0.6666667E-01  0.7111111E-02
    1       -6.463441   0.500074
    2       -0.011502   0.000000
    3        0.480382   0.000000
    4        0.633178   0.000000

  0.3333333E+00  0.2666667E+00  0.6666667E-01  0.1422222E-01
    1       -6.463428   0.500037
    2        0.037278   0.000000
    3        0.414038   0.000000
    4        0.636902   0.000000

  0.4000000E+00  0.2666667E+00  0.6666667E-01  0.1422222E-01
    1       -6.463413   0.499995
    2        0.096210   0.000000
    3        0.328245   0.000000
    4        0.669435   0.000000

  0.4666667E+00  0.2666667E+00  0.6666667E-01  0.1422222E-01
    1       -6.463410   0.499988
    2        0.164177   0.000000
    3        0.244540   0.000000
    4        0.698790   0.000000

  0.3333333E+00  0.3333333E+00  0.6666667E-01  0.7111111E-02
    1       -6.463414   0.500000
    2        0.085390   0.000000
    3        0.408058   0.000000
    4        0.585157   0.000000

  0.4000000E+00  0.3333333E+00  0.6666667E-01  0.1422222E-01
    1       -6.463408   0.499982
    2        0.143117   0.000000
    3        0.355355   0.000000
    4        0.590476   0.000000

  0.4666667E+00  0.3333333E+00  0.6666667E-01  0.1422222E-01
    1       -6.463391   0.499933
    2        0.209247   0.000000
    3        0.282693   0.000000
    4        0.615582   0.000000

  0.4000000E+00  0.4000000E+00  0.6666667E-01  0.7111111E-02
    1       -6.463394   0.499942
    2        0.198374   0.000000
    3        0.359153   0.000000
    4        0.545483   0.000000

  0.4666667E+00  0.4000000E+00  0.6666667E-01  0.1422222E-01
    1       -6.463390   0.499932
    2        0.259451   0.000000
    3        0.319682   0.000000
    4        0.545154   0.000000

  0.4666667E+00  0.4666667E+00  0.6666667E-01  0.7111111E-02
    1       -6.463386   0.499919
    2        0.307723   0.000000
    3        0.334531   0.000000
    4        0.502615   0.000000

  0.1333333E+00  0.1333333E+00  0.1333333E+00  0.2370370E-02
    1       -6.463486   0.500201
    2       -0.126737   0.000000
    3        0.699128   0.000000
    4        0.699129   0.000000

  0.2000000E+00  0.1333333E+00  0.1333333E+00  0.7111111E-02
    1       -6.463474   0.500168
    2       -0.099160   0.000000
    3        0.601822   0.000000
    4        0.722671   0.000000

  0.2666667E+00  0.1333333E+00  0.1333333E+00  0.7111111E-02
    1       -6.463464   0.500139
    2       -0.060682   0.000000
    3        0.494437   0.000000
    4        0.753235   0.000000

  0.3333333E+00  0.1333333E+00  0.1333333E+00  0.7111111E-02
    1       -6.463449   0.500099
    2       -0.011465   0.000000
    3        0.389490   0.000000
    4        0.787404   0.000000

  0.4000000E+00  0.1333333E+00  0.1333333E+00  0.7111111E-02
    1       -6.463434   0.500056
    2        0.048154   0.000000
    3        0.291418   0.000000
    4        0.819104   0.000000

  0.4666667E+00  0.1333333E+00  0.1333333E+00  0.7111111E-02
    1       -6.463428   0.500039
    2        0.116507   0.000000
    3        0.203529   0.000000
    4        0.839187   0.000000

  0.2000000E+00  0.2000000E+00  0.1333333E+00  0.7111111E-02
    1       -6.463461   0.500130
    2       -0.071642   0.000000
    3        0.589503   0.000000
    4        0.671902   0.000000

  0.2666667E+00  0.2000000E+00  0.1333333E+00  0.1422222E-01
    1       -6.463448   0.500094
    2       -0.033273   0.000000
    3        0.507725   0.000000
    4        0.682839   0.000000

  0.3333333E+00  0.2000000E+00  0.1333333E+00  0.1422222E-01
    1       -6.463430   0.500043
    2        0.015765   0.000000
    3        0.409341   0.000000
    4        0.715843   0.000000

  0.4000000E+00  0.2000000E+00  0.1333333E+00  0.1422222E-01
    1       -6.463420   0.500016
    2        0.075138   0.000000
    3        0.314138   0.000000
    4        0.750572   0.000000

  0.4666667E+00  0.2000000E+00  0.1333333E+00  0.1422222E-01
    1       -6.463419   0.500013
    2        0.143600   0.000000
    3        0.227198   0.000000
    4        0.774238   0.000000

  0.2666667E+00  0.2666667E+00  0.1333333E+00  0.7111111E-02
    1       -6.463430   0.500044
    2        0.004889   0.000000
    3        0.496083   0.000000
    4        0.628555   0.000000

  0.3333333E+00  0.2666667E+00  0.1333333E+00  0.1422222E-01
    1       -6.463418   0.500010
    2        0.053561   0.000000
    3        0.428916   0.000000
    4        0.635798   0.000000

  0.4000000E+00  0.2666667E+00  0.1333333E+00  0.1422222E-01
    1       -6.463408   0.499983
    2        0.112350   0.000000
    3        0.343038   0.000000
    4        0.668197   0.000000

  0.4666667E+00  0.2666667E+00  0.1333333E+00  0.1422222E-01
    1       -6.463396   0.499947
    2        0.180315   0.000000
    3        0.259428   0.000000
    4        0.695323   0.000000

  0.3333333E+00  0.3333333E+00  0.1333333E+00  0.7111111E-02
    1       -6.463403   0.499968
    2        0.101541   0.000000
    3        0.423973   0.000000
    4        0.586399   0.000000

  0.4000000E+00  0.3333333E+00  0.1333333E+00  0.1422222E-01
    1       -6.463390   0.499932
    2        0.159093   0.000000
    3        0.370804   0.000000
    4        0.592807   0.000000

  0.4666667E+00  0.3333333E+00  0.1333333E+00  0.1422222E-01
    1       -6.463385   0.499916
    2        0.225095   0.000000
    3        0.297940   0.000000
    4        0.616730   0.000000

  0.4000000E+00  0.4000000E+00  0.1333333E+00  0.7111111E-02
    1       -6.463378   0.499897
    2        0.214157   0.000000
    3        0.375192   0.000000
    4        0.548763   0.000000

  0.4666667E+00  0.4000000E+00  0.1333333E+00  0.1422222E-01
    1       -6.463375   0.499889
    2        0.275087   0.000000
    3        0.335391   0.000000
    4        0.548255   0.000000

  0.4666667E+00  0.4666667E+00  0.1333333E+00  0.7111111E-02
    1       -6.463374   0.499887
    2        0.323477   0.000000
    3        0.350627   0.000000
    4        0.505708   0.000000

  0.2000000E+00  0.2000000E+00  0.2000000E+00  0.2370370E-02
    1       -6.463444   0.500083
    2       -0.044193   0.000000
    3        0.614172   0.000000
    4        0.614172   0.000000

  0.2666667E+00  0.2000000E+00  0.2000000E+00  0.7111111E-02
    1       -6.463431   0.500046
    2       -0.005946   0.000000
    3        0.526071   0.000000
    4        0.646460   0.000000

  0.3333333E+00  0.2000000E+00  0.2000000E+00  0.7111111E-02
    1       -6.463417   0.500008
    2        0.042890   0.000000
    3        0.430367   0.000000
    4        0.683023   0.000000

  0.4000000E+00  0.2000000E+00  0.2000000E+00  0.7111111E-02
    1       -6.463412   0.499994
    2        0.101977   0.000000
    3        0.337252   0.000000
    4        0.717579   0.000000

  0.4666667E+00  0.2000000E+00  0.2000000E+00  0.7111111E-02
    1       -6.463395   0.499945
    2        0.170385   0.000000
    3        0.251214   0.000000
    4        0.739925   0.000000

  0.2666667E+00  0.2666667E+00  0.2000000E+00  0.7111111E-02
    1       -6.463421   0.500018
    2        0.032072   0.000000
    3        0.521401   0.000000
    4        0.607009   0.000000

  0.3333333E+00  0.2666667E+00  0.2000000E+00  0.1422222E-01
    1       -6.463401   0.499961
    2        0.080512   0.000000
    3        0.452284   0.000000
    4        0.624581   0.000000

  0.4000000E+00  0.2666667E+00  0.2000000E+00  0.1422222E-01
    1       -6.463390   0.499932
    2        0.138963   0.000000
    3        0.366785   0.000000
    4        0.658102   0.000000

  0.4666667E+00  0.2666667E+00  0.2000000E+00  0.1422222E-01
    1       -6.463385   0.499916
    2        0.206664   0.000000
    3        0.283866   0.000000
    4        0.682537   0.000000

  0.3333333E+00  0.3333333E+00  0.2000000E+00  0.7111111E-02
    1       -6.463394   0.499943
    2        0.128221   0.000000
    3        0.449679   0.000000
    4        0.582764   0.000000

  0.4000000E+00  0.3333333E+00  0.2000000E+00  0.1422222E-01
    1       -6.463379   0.499899
    2        0.185379   0.000000
    3        0.395672   0.000000
    4        0.592757   0.000000

  0.4666667E+00  0.3333333E+00  0.2000000E+00  0.1422222E-01
    1       -6.463365   0.499859
    2        0.250923   0.000000
    3        0.322837   0.000000
    4        0.615396   0.000000

  0.4000000E+00  0.4000000E+00  0.2000000E+00  0.7111111E-02
    1       -6.463364   0.499858
    2        0.240014   0.000000
    3        0.401119   0.000000
    4        0.551983   0.000000

  0.4666667E+00  0.4000000E+00  0.2000000E+00  0.1422222E-01
    1       -6.463361   0.499849
    2        0.300479   0.000000
    3        0.360861   0.000000
    4        0.552077   0.000000

  0.4666667E+00  0.4666667E+00  0.2000000E+00  0.7111111E-02
    1       -6.463362   0.499851
    2        0.348945   0.000000
    3        0.376655   0.000000
    4        0.510388   0.000000

  0.2666667E+00  0.2666667E+00  0.2666667E+00  0.2370370E-02
    1       -6.463394   0.499943
    2        0.069831   0.000000
    3        0.554692   0.000000
    4        0.554692   0.000000

  0.3333333E+00  0.2666667E+00  0.2666667E+00  0.7111111E-02
    1       -6.463387   0.499923
    2        0.117830   0.000000
    3        0.479483   0.000000
    4        0.592673   0.000000

  0.4000000E+00  0.2666667E+00  0.2666667E+00  0.7111111E-02
    1       -6.463368   0.499870
    2        0.175575   0.000000
    3        0.397317   0.000000
    4        0.628968   0.000000

  0.4666667E+00  0.2666667E+00  0.2666667E+00  0.7111111E-02
    1       -6.463360   0.499848
    2        0.242307   0.000000
    3        0.316957   0.000000
    4        0.652741   0.000000

  0.3333333E+00  0.3333333E+00  0.2666667E+00  0.7111111E-02
    1       -6.463364   0.499858
    2        0.165039   0.000000
    3        0.483568   0.000000
    4        0.564160   0.000000

  0.4000000E+00  0.3333333E+00  0.2666667E+00  0.1422222E-01
    1       -6.463364   0.499857
    2        0.221408   0.000000
    3        0.428031   0.000000
    4        0.583563   0.000000

  0.4666667E+00  0.3333333E+00  0.2666667E+00  0.1422222E-01
    1       -6.463351   0.499820
    2        0.285751   0.000000
    3        0.356279   0.000000
    4        0.606361   0.000000

  0.4000000E+00  0.4000000E+00  0.2666667E+00  0.7111111E-02
    1       -6.463350   0.499819
    2        0.275185   0.000000
    3        0.435353   0.000000
    4        0.551031   0.000000

  0.4666667E+00  0.4000000E+00  0.2666667E+00  0.1422222E-01
    1       -6.463345   0.499804
    2        0.334468   0.000000
    3        0.394679   0.000000
    4        0.554187   0.000000

  0.4666667E+00  0.4666667E+00  0.2666667E+00  0.7111111E-02
    1       -6.463334   0.499773
    2        0.382643   0.000000
    3        0.411047   0.000000
    4        0.515795   0.000000

  0.3333333E+00  0.3333333E+00  0.3333333E+00  0.2370370E-02
    1       -6.463333   0.499769
    2        0.211373   0.000000
    3        0.522403   0.000000
    4        0.522404   0.000000

  0.4000000E+00  0.3333333E+00  0.3333333E+00  0.7111111E-02
    1       -6.463346   0.499807
    2        0.266250   0.000000
    3        0.462496   0.000000
    4        0.559765   0.000000

  0.4666667E+00  0.3333333E+00  0.3333333E+00  0.7111111E-02
    1       -6.463341   0.499792
    2        0.327993   0.000000
    3        0.395618   0.000000
    4        0.584433   0.000000

  0.4000000E+00  0.4000000E+00  0.3333333E+00  0.7111111E-02
    1       -6.463330   0.499761
    2        0.318400   0.000000
    3        0.474681   0.000000
    4        0.539650   0.000000

  0.4666667E+00  0.4000000E+00  0.3333333E+00  0.1422222E-01
    1       -6.463324   0.499745
    2        0.375082   0.000000
    3        0.433840   0.000000
    4        0.550709   0.000000

  0.4666667E+00  0.4666667E+00  0.3333333E+00  0.7111111E-02
    1       -6.463324   0.499744
    2        0.421767   0.000000
    3        0.450603   0.000000
    4        0.520361   0.000000

  0.4000000E+00  0.4000000E+00  0.4000000E+00  0.2370370E-02
    1       -6.463325   0.499746
    2        0.367593   0.000000
    3        0.512665   0.000000
    4        0.512665   0.000000

  0.4666667E+00  0.4000000E+00  0.4000000E+00  0.7111111E-02
    1       -6.463317   0.499724
    2        0.419147   0.000000
    3        0.471508   0.000000
    4        0.537862   0.000000

  0.4666667E+00  0.4666667E+00  0.4000000E+00  0.7111111E-02
    1       -6.463316   0.499723
    2        0.461366   0.000000
    3        0.488875   0.000000
    4        0.521326   0.000000

  0.4666667E+00  0.4666667E+00  0.4666667E+00  0.2370370E-02
    1       -6.463303   0.499685
    2        0.494132   0.000000
    3        0.514319   0.000000
    4        0.514319   0.000000
