 running on    1 total cores
 distrk:  each k-point on    1 cores,    1 groups
 distr:  one band on    1 cores,    1 groups
 running on    1 total cores
 distrk:  each k-point on    1 cores,    1 groups
 distr:  one band on    1 cores,    1 groups
 vasp.6.2.1 16May21 (build Dec 20 2021 17:02:34) complex                         
 vasp.6.2.1 16May21 (build Dec 20 2021 17:02:34) complex                         
 POSCAR found type information on POSCAR He
 POSCAR found :  1 types and       1 ions
 scaLAPACK will be used
 WARNING: type information on POSCAR and POTCAR are incompatible
 POTCAR overwrites the type information in POSCAR
 typ   1 type information:  He H 
 POSCAR found type information on POSCAR He
 POSCAR found :  1 types and       1 ions
 scaLAPACK will be used
 WARNING: type information on POSCAR and POTCAR are incompatible
 POTCAR overwrites the type information in POSCAR
 typ   1 type information:  He H 
 LDA part: xc-table for Pade appr. of Perdew
 LDA part: xc-table for Pade appr. of Perdew
 POSCAR, INCAR and KPOINTS ok, starting setup
 POSCAR, INCAR and KPOINTS ok, starting setup
 FFT: planning ...
 FFT: planning ...
 WAVECAR not read
 WAVECAR not read
 WARNING: random wavefunctions but no delay for mixing, default for NELMDL
 WARNING: random wavefunctions but no delay for mixing, default for NELMDL
 entering main loop
       N       E                     dE             d eps       ncg     rms          rms(c)
 entering main loop
       N       E                     dE             d eps       ncg     rms          rms(c)
DAV:   1     0.293991674791E+01    0.29399E+01   -0.64633E+01   960   0.487E+01
DAV:   1     0.293991674791E+01    0.29399E+01   -0.64633E+01   960   0.487E+01
DAV:   2     0.182630774352E+00   -0.27573E+01   -0.27395E+01  1164   0.163E+01
DAV:   2     0.182630774353E+00   -0.27573E+01   -0.27395E+01  1164   0.163E+01
DAV:   3    -0.101940316652E+00   -0.28457E+00   -0.20451E+00  1196   0.635E+00
DAV:   3    -0.101940316652E+00   -0.28457E+00   -0.20451E+00  1196   0.635E+00
DAV:   4    -0.112799369640E+00   -0.10859E-01   -0.10358E-01  1372   0.131E+00
DAV:   4    -0.112799369640E+00   -0.10859E-01   -0.10358E-01  1372   0.131E+00
DAV:   5    -0.112843275146E+00   -0.43906E-04   -0.43887E-04  1280   0.664E-02DAV:   5    -0.112843275146E+00   -0.43906E-04   -0.43887E-04  1280   0.664E-02    0.197E-02
    0.197E-02
DAV:   6    -0.112876789519E+00   -0.33514E-04   -0.45747E-06  1192   0.298E-02DAV:   6    -0.112876789500E+00   -0.33514E-04   -0.45747E-06  1192   0.298E-02    0.113E-02
    0.113E-02
DAV:   7    -0.112890043260E+00   -0.13254E-04   -0.63232E-06  1036   0.389E-02DAV:   7    -0.112890043623E+00   -0.13254E-04   -0.63232E-06  1036   0.389E-02    0.408E-04
    0.408E-04
DAV:   8    -0.112890681670E+00   -0.63841E-06   -0.20295E-08  1396   0.208E-03DAV:   8    -0.112890680839E+00   -0.63722E-06   -0.20295E-08  1396   0.208E-03    0.136E-04
    0.136E-04
DAV:   9    -0.112890702206E+00   -0.21368E-07   -0.35948E-09  1148   0.829E-04
DAV:   9    -0.112890703112E+00   -0.21442E-07   -0.35945E-09  1148   0.829E-04
   1 F= -.11289070E+00 E0= -.56471748E-01  d E =-.112891E+00
 curvature:   0.00 expect dE= 0.000E+00 dE for cont linesearch  0.000E+00
 trial: gam= 0.00000 g(F)=  0.581E-63 g(S)=  0.000E+00 ort = 0.000E+00 (trialstep = 0.100E+01)
 search vector abs. value=  0.100E-09
 reached required accuracy - stopping structural energy minimisation
   1 F= -.11289070E+00 E0= -.56471747E-01  d E =-.112891E+00
 curvature:   0.00 expect dE= 0.000E+00 dE for cont linesearch  0.000E+00
 trial: gam= 0.00000 g(F)=  0.000E+00 g(S)=  0.000E+00 ort = 0.000E+00 (trialstep = 0.100E+01)
 search vector abs. value=  0.100E-09
 reached required accuracy - stopping structural energy minimisation
 writing wavefunctions
 writing wavefunctions
