 vasp.6.2.1 16May21 (build Dec 20 2021 17:02:34) complex                         
 executed on             LinuxGNU date 2026.04.15  21:41:38
 running on    1 total cores
 distrk:  each k-point on    1 cores,    1 groups
 distr:  one band on NCORE=   1 cores,    1 groups


--------------------------------------------------------------------------------------------------------


 INCAR:
   ISMEAR = 0
   NSW = 100
   IBRION = 2
   ISIF = 2
   ENCUT = 500
   EDIFF = 0.0000001

 POTCAR:    PAW_PBE H 15Jun2001                   
 POTCAR:    PAW_PBE H 15Jun2001                   
   VRHFIN =H: ultrasoft test                                                                        
   LEXCH  = PE                                                                                      
   EATOM  =    12.4884 eV,    0.9179 Ry                                                             
                                                                                                    
   TITEL  = PAW_PBE H 15Jun2001                                                                     
   LULTRA =        F    use ultrasoft PP ?                                                          
   IUNSCR =        0    unscreen: 0-lin 1-nonlin 2-no                                               
   RPACOR =    0.000    partial core radius                                                         
   POMASS =    1.000; ZVAL   =    1.000    mass and valenz                                          
   RCORE  =    1.100    outmost cutoff radius                                                       
   RWIGS  =    0.700; RWIGS  =    0.370    wigner-seitz radius (au A)                               
   ENMAX  =  250.000; ENMIN  =  200.000 eV                                                          
   RCLOC  =    0.701    cutoff for local pot                                                        
   LCOR   =        T    correct aug charges                                                         
   LPAW   =        T    paw PP                                                                      
   EAUG   =  400.000                                                                                
   RMAX   =    1.123    core radius for proj-oper                                                   
   RAUG   =    1.200    factor for augmentation sphere                                              
   RDEP   =    1.112    radius for radial grids                                                     
   RDEPT  =    0.926    core radius for aug-charge                                                  
                                                                                                    
   Atomic configuration                                                                             
    2 entries                                                                                       
     n  l   j            E        occ.                                                              
     1  0  0.50        -6.4927   1.0000                                                             
     2  1  0.50        -3.4015   0.0000                                                             
   Description                                                                                      
     l       E           TYP  RCUT    TYP  RCUT                                                     
     0     -6.4927494     23  1.100                                                                 
     0      6.8029130     23  1.100                                                                 
     1     -4.0817478     23  1.100                                                                 
  local pseudopotential read in
  atomic valenz-charges read in
  non local Contribution for L=           0  read in
    real space projection operators read in
  non local Contribution for L=           0  read in
    real space projection operators read in
  non local Contribution for L=           1  read in
    real space projection operators read in
    PAW grid and wavefunctions read in

   number of l-projection  operators is LMAX  =           3
   number of lm-projection operators is LMMAX =           5

  PAW_PBE H 15Jun2001                   :
 energy of atom  1       EATOM=  -12.4884
 kinetic energy error for atom=    0.0020 (will be added to EATOM!!)


 POSCAR: H in 10x10x10 box centered
  positions in direct lattice
  No initial velocities read in
 exchange correlation table for  LEXCH =        8
   RHO(1)=    0.500       N(1)  =     2000
   RHO(2)=  100.500       N(2)  =     4000



--------------------------------------------------------------------------------------------------------


 ion  position               nearest neighbor table
   1  0.500  0.500  0.500-

  LATTYP: Found a simple cubic cell.
 ALAT       =    10.0000000000
  
  Lattice vectors:
  
 A1 = (  10.0000000000,   0.0000000000,   0.0000000000)
 A2 = (   0.0000000000,  10.0000000000,   0.0000000000)
 A3 = (   0.0000000000,   0.0000000000,  10.0000000000)


Analysis of symmetry for initial positions (statically):
=====================================================================
 Subroutine PRICEL returns:
 Original cell was already a primitive cell.
 

 Routine SETGRP: Setting up the symmetry group for a 
 simple cubic supercell.


 Subroutine GETGRP returns: Found 48 space group operations
 (whereof 48 operations were pure point group operations)
 out of a pool of 48 trial point group operations.


The static configuration has the point symmetry O_h .


Analysis of symmetry for dynamics (positions and initial velocities):
=====================================================================
 Subroutine PRICEL returns:
 Original cell was already a primitive cell.
 

 Routine SETGRP: Setting up the symmetry group for a 
 simple cubic supercell.


 Subroutine GETGRP returns: Found 48 space group operations
 (whereof 48 operations were pure point group operations)
 out of a pool of 48 trial point group operations.


The dynamic configuration has the point symmetry O_h .


 Subroutine INISYM returns: Found 48 space group operations
 (whereof 48 operations are pure point group operations),
 and found     1 'primitive' translations


----------------------------------------------------------------------------------------

                                     Primitive cell                                     

  volume of cell :    1000.0000

  direct lattice vectors                    reciprocal lattice vectors
    10.000000000  0.000000000  0.000000000     0.100000000  0.000000000  0.000000000
     0.000000000 10.000000000  0.000000000     0.000000000  0.100000000  0.000000000
     0.000000000  0.000000000 10.000000000     0.000000000  0.000000000  0.100000000

  length of vectors
    10.000000000 10.000000000 10.000000000     0.100000000  0.100000000  0.100000000

  position of ions in fractional coordinates (direct lattice)
     0.500000000  0.500000000  0.500000000

  ion indices of the primitive-cell ions
   primitive index   ion index
                 1           1

----------------------------------------------------------------------------------------



 KPOINTS: KPOINTS created by Atomic Simulation Env

Automatic generation of k-mesh.
 Grid dimensions read from file:
 generate k-points for:   15   15   15

 Generating k-lattice:

  Cartesian coordinates                     Fractional coordinates (reciprocal lattice)
     0.006666667  0.000000000  0.000000000     0.066666667  0.000000000  0.000000000
     0.000000000  0.006666667  0.000000000     0.000000000  0.066666667  0.000000000
     0.000000000  0.000000000  0.006666667     0.000000000  0.000000000  0.066666667

  Length of vectors
     0.006666667  0.006666667  0.006666667

  Shift w.r.t. Gamma in fractional coordinates (k-lattice)
     0.000000000  0.000000000  0.000000000

 
 Subroutine IBZKPT returns following result:
 ===========================================
 
 Found    120 irreducible k-points:
 
 Following reciprocal coordinates:
            Coordinates               Weight
  0.000000  0.000000  0.000000      1.000000
  0.066667  0.000000  0.000000      6.000000
  0.133333  0.000000  0.000000      6.000000
  0.200000  0.000000  0.000000      6.000000
  0.266667  0.000000  0.000000      6.000000
  0.333333  0.000000  0.000000      6.000000
  0.400000  0.000000  0.000000      6.000000
  0.466667  0.000000  0.000000      6.000000
  0.066667  0.066667  0.000000     12.000000
  0.133333  0.066667  0.000000     24.000000
  0.200000  0.066667  0.000000     24.000000
  0.266667  0.066667  0.000000     24.000000
  0.333333  0.066667  0.000000     24.000000
  0.400000  0.066667  0.000000     24.000000
  0.466667  0.066667  0.000000     24.000000
  0.133333  0.133333  0.000000     12.000000
  0.200000  0.133333  0.000000     24.000000
  0.266667  0.133333  0.000000     24.000000
  0.333333  0.133333  0.000000     24.000000
  0.400000  0.133333  0.000000     24.000000
  0.466667  0.133333  0.000000     24.000000
  0.200000  0.200000  0.000000     12.000000
  0.266667  0.200000  0.000000     24.000000
  0.333333  0.200000  0.000000     24.000000
  0.400000  0.200000  0.000000     24.000000
  0.466667  0.200000  0.000000     24.000000
  0.266667  0.266667  0.000000     12.000000
  0.333333  0.266667  0.000000     24.000000
  0.400000  0.266667  0.000000     24.000000
  0.466667  0.266667  0.000000     24.000000
  0.333333  0.333333  0.000000     12.000000
  0.400000  0.333333  0.000000     24.000000
  0.466667  0.333333  0.000000     24.000000
  0.400000  0.400000  0.000000     12.000000
  0.466667  0.400000  0.000000     24.000000
  0.466667  0.466667  0.000000     12.000000
  0.066667  0.066667  0.066667      8.000000
  0.133333  0.066667  0.066667     24.000000
  0.200000  0.066667  0.066667     24.000000
  0.266667  0.066667  0.066667     24.000000
  0.333333  0.066667  0.066667     24.000000
  0.400000  0.066667  0.066667     24.000000
  0.466667  0.066667  0.066667     24.000000
  0.133333  0.133333  0.066667     24.000000
  0.200000  0.133333  0.066667     48.000000
  0.266667  0.133333  0.066667     48.000000
  0.333333  0.133333  0.066667     48.000000
  0.400000  0.133333  0.066667     48.000000
  0.466667  0.133333  0.066667     48.000000
  0.200000  0.200000  0.066667     24.000000
  0.266667  0.200000  0.066667     48.000000
  0.333333  0.200000  0.066667     48.000000
  0.400000  0.200000  0.066667     48.000000
  0.466667  0.200000  0.066667     48.000000
  0.266667  0.266667  0.066667     24.000000
  0.333333  0.266667  0.066667     48.000000
  0.400000  0.266667  0.066667     48.000000
  0.466667  0.266667  0.066667     48.000000
  0.333333  0.333333  0.066667     24.000000
  0.400000  0.333333  0.066667     48.000000
  0.466667  0.333333  0.066667     48.000000
  0.400000  0.400000  0.066667     24.000000
  0.466667  0.400000  0.066667     48.000000
  0.466667  0.466667  0.066667     24.000000
  0.133333  0.133333  0.133333      8.000000
  0.200000  0.133333  0.133333     24.000000
  0.266667  0.133333  0.133333     24.000000
  0.333333  0.133333  0.133333     24.000000
  0.400000  0.133333  0.133333     24.000000
  0.466667  0.133333  0.133333     24.000000
  0.200000  0.200000  0.133333     24.000000
  0.266667  0.200000  0.133333     48.000000
  0.333333  0.200000  0.133333     48.000000
  0.400000  0.200000  0.133333     48.000000
  0.466667  0.200000  0.133333     48.000000
  0.266667  0.266667  0.133333     24.000000
  0.333333  0.266667  0.133333     48.000000
  0.400000  0.266667  0.133333     48.000000
  0.466667  0.266667  0.133333     48.000000
  0.333333  0.333333  0.133333     24.000000
  0.400000  0.333333  0.133333     48.000000
  0.466667  0.333333  0.133333     48.000000
  0.400000  0.400000  0.133333     24.000000
  0.466667  0.400000  0.133333     48.000000
  0.466667  0.466667  0.133333     24.000000
  0.200000  0.200000  0.200000      8.000000
  0.266667  0.200000  0.200000     24.000000
  0.333333  0.200000  0.200000     24.000000
  0.400000  0.200000  0.200000     24.000000
  0.466667  0.200000  0.200000     24.000000
  0.266667  0.266667  0.200000     24.000000
  0.333333  0.266667  0.200000     48.000000
  0.400000  0.266667  0.200000     48.000000
  0.466667  0.266667  0.200000     48.000000
  0.333333  0.333333  0.200000     24.000000
  0.400000  0.333333  0.200000     48.000000
  0.466667  0.333333  0.200000     48.000000
  0.400000  0.400000  0.200000     24.000000
  0.466667  0.400000  0.200000     48.000000
  0.466667  0.466667  0.200000     24.000000
  0.266667  0.266667  0.266667      8.000000
  0.333333  0.266667  0.266667     24.000000
  0.400000  0.266667  0.266667     24.000000
  0.466667  0.266667  0.266667     24.000000
  0.333333  0.333333  0.266667     24.000000
  0.400000  0.333333  0.266667     48.000000
  0.466667  0.333333  0.266667     48.000000
  0.400000  0.400000  0.266667     24.000000
  0.466667  0.400000  0.266667     48.000000
  0.466667  0.466667  0.266667     24.000000
  0.333333  0.333333  0.333333      8.000000
  0.400000  0.333333  0.333333     24.000000
  0.466667  0.333333  0.333333     24.000000
  0.400000  0.400000  0.333333     24.000000
  0.466667  0.400000  0.333333     48.000000
  0.466667  0.466667  0.333333     24.000000
  0.400000  0.400000  0.400000      8.000000
  0.466667  0.400000  0.400000     24.000000
  0.466667  0.466667  0.400000     24.000000
  0.466667  0.466667  0.466667      8.000000
 
 Following cartesian coordinates:
            Coordinates               Weight
  0.000000  0.000000  0.000000      1.000000
  0.006667  0.000000  0.000000      6.000000
  0.013333  0.000000  0.000000      6.000000
  0.020000  0.000000  0.000000      6.000000
  0.026667  0.000000  0.000000      6.000000
  0.033333  0.000000  0.000000      6.000000
  0.040000  0.000000  0.000000      6.000000
  0.046667  0.000000  0.000000      6.000000
  0.006667  0.006667  0.000000     12.000000
  0.013333  0.006667  0.000000     24.000000
  0.020000  0.006667  0.000000     24.000000
  0.026667  0.006667  0.000000     24.000000
  0.033333  0.006667  0.000000     24.000000
  0.040000  0.006667  0.000000     24.000000
  0.046667  0.006667  0.000000     24.000000
  0.013333  0.013333  0.000000     12.000000
  0.020000  0.013333  0.000000     24.000000
  0.026667  0.013333  0.000000     24.000000
  0.033333  0.013333  0.000000     24.000000
  0.040000  0.013333  0.000000     24.000000
  0.046667  0.013333  0.000000     24.000000
  0.020000  0.020000  0.000000     12.000000
  0.026667  0.020000  0.000000     24.000000
  0.033333  0.020000  0.000000     24.000000
  0.040000  0.020000  0.000000     24.000000
  0.046667  0.020000  0.000000     24.000000
  0.026667  0.026667  0.000000     12.000000
  0.033333  0.026667  0.000000     24.000000
  0.040000  0.026667  0.000000     24.000000
  0.046667  0.026667  0.000000     24.000000
  0.033333  0.033333  0.000000     12.000000
  0.040000  0.033333  0.000000     24.000000
  0.046667  0.033333  0.000000     24.000000
  0.040000  0.040000  0.000000     12.000000
  0.046667  0.040000  0.000000     24.000000
  0.046667  0.046667  0.000000     12.000000
  0.006667  0.006667  0.006667      8.000000
  0.013333  0.006667  0.006667     24.000000
  0.020000  0.006667  0.006667     24.000000
  0.026667  0.006667  0.006667     24.000000
  0.033333  0.006667  0.006667     24.000000
  0.040000  0.006667  0.006667     24.000000
  0.046667  0.006667  0.006667     24.000000
  0.013333  0.013333  0.006667     24.000000
  0.020000  0.013333  0.006667     48.000000
  0.026667  0.013333  0.006667     48.000000
  0.033333  0.013333  0.006667     48.000000
  0.040000  0.013333  0.006667     48.000000
  0.046667  0.013333  0.006667     48.000000
  0.020000  0.020000  0.006667     24.000000
  0.026667  0.020000  0.006667     48.000000
  0.033333  0.020000  0.006667     48.000000
  0.040000  0.020000  0.006667     48.000000
  0.046667  0.020000  0.006667     48.000000
  0.026667  0.026667  0.006667     24.000000
  0.033333  0.026667  0.006667     48.000000
  0.040000  0.026667  0.006667     48.000000
  0.046667  0.026667  0.006667     48.000000
  0.033333  0.033333  0.006667     24.000000
  0.040000  0.033333  0.006667     48.000000
  0.046667  0.033333  0.006667     48.000000
  0.040000  0.040000  0.006667     24.000000
  0.046667  0.040000  0.006667     48.000000
  0.046667  0.046667  0.006667     24.000000
  0.013333  0.013333  0.013333      8.000000
  0.020000  0.013333  0.013333     24.000000
  0.026667  0.013333  0.013333     24.000000
  0.033333  0.013333  0.013333     24.000000
  0.040000  0.013333  0.013333     24.000000
  0.046667  0.013333  0.013333     24.000000
  0.020000  0.020000  0.013333     24.000000
  0.026667  0.020000  0.013333     48.000000
  0.033333  0.020000  0.013333     48.000000
  0.040000  0.020000  0.013333     48.000000
  0.046667  0.020000  0.013333     48.000000
  0.026667  0.026667  0.013333     24.000000
  0.033333  0.026667  0.013333     48.000000
  0.040000  0.026667  0.013333     48.000000
  0.046667  0.026667  0.013333     48.000000
  0.033333  0.033333  0.013333     24.000000
  0.040000  0.033333  0.013333     48.000000
  0.046667  0.033333  0.013333     48.000000
  0.040000  0.040000  0.013333     24.000000
  0.046667  0.040000  0.013333     48.000000
  0.046667  0.046667  0.013333     24.000000
  0.020000  0.020000  0.020000      8.000000
  0.026667  0.020000  0.020000     24.000000
  0.033333  0.020000  0.020000     24.000000
  0.040000  0.020000  0.020000     24.000000
  0.046667  0.020000  0.020000     24.000000
  0.026667  0.026667  0.020000     24.000000
  0.033333  0.026667  0.020000     48.000000
  0.040000  0.026667  0.020000     48.000000
  0.046667  0.026667  0.020000     48.000000
  0.033333  0.033333  0.020000     24.000000
  0.040000  0.033333  0.020000     48.000000
  0.046667  0.033333  0.020000     48.000000
  0.040000  0.040000  0.020000     24.000000
  0.046667  0.040000  0.020000     48.000000
  0.046667  0.046667  0.020000     24.000000
  0.026667  0.026667  0.026667      8.000000
  0.033333  0.026667  0.026667     24.000000
  0.040000  0.026667  0.026667     24.000000
  0.046667  0.026667  0.026667     24.000000
  0.033333  0.033333  0.026667     24.000000
  0.040000  0.033333  0.026667     48.000000
  0.046667  0.033333  0.026667     48.000000
  0.040000  0.040000  0.026667     24.000000
  0.046667  0.040000  0.026667     48.000000
  0.046667  0.046667  0.026667     24.000000
  0.033333  0.033333  0.033333      8.000000
  0.040000  0.033333  0.033333     24.000000
  0.046667  0.033333  0.033333     24.000000
  0.040000  0.040000  0.033333     24.000000
  0.046667  0.040000  0.033333     48.000000
  0.046667  0.046667  0.033333     24.000000
  0.040000  0.040000  0.040000      8.000000
  0.046667  0.040000  0.040000     24.000000
  0.046667  0.046667  0.040000     24.000000
  0.046667  0.046667  0.046667      8.000000
 


--------------------------------------------------------------------------------------------------------




 Dimension of arrays:
   k-points           NKPTS =    120   k-points in BZ     NKDIM =    120   number of bands    NBANDS=      4
   number of dos      NEDOS =    301   number of ions     NIONS =      1
   non local maximal  LDIM  =      3   non local SUM 2l+1 LMDIM =      5
   total plane-waves  NPLWV = 175616
   max r-space proj   IRMAX =      1   max aug-charges    IRDMAX=   1053
   dimension x,y,z NGX =    56 NGY =   56 NGZ =   56
   dimension x,y,z NGXF=   112 NGYF=  112 NGZF=  112
   support grid    NGXF=   112 NGYF=  112 NGZF=  112
   ions per type =               1
   NGX,Y,Z   is equivalent  to a cutoff of   9.31,  9.31,  9.31 a.u.
   NGXF,Y,Z  is equivalent  to a cutoff of  18.62, 18.62, 18.62 a.u.

 SYSTEM =  unknown system                          
 POSCAR =  H in 10x10x10 box centered              

 Startparameter for this run:
   NWRITE =      2    write-flag & timer
   PREC   = normal    normal or accurate (medium, high low for compatibility)
   ISTART =      0    job   : 0-new  1-cont  2-samecut
   ICHARG =      2    charge: 1-file 2-atom 10-const
   ISPIN  =      1    spin polarized calculation?
   LNONCOLLINEAR =      F non collinear calculations
   LSORBIT =      F    spin-orbit coupling
   INIWAV =      1    electr: 0-lowe 1-rand  2-diag
   LASPH  =      F    aspherical Exc in radial PAW
 Electronic Relaxation 1
   ENCUT  =  500.0 eV  36.75 Ry    6.06 a.u.  18.23 18.23 18.23*2*pi/ulx,y,z
   ENINI  =  500.0     initial cutoff
   ENAUG  =  400.0 eV  augmentation charge cutoff
   NELM   =     60;   NELMIN=  2; NELMDL=  0     # of ELM steps 
   EDIFF  = 0.1E-06   stopping-criterion for ELM
   LREAL  =      F    real-space projection
   NLSPLINE    = F    spline interpolate recip. space projectors
   LCOMPAT=      F    compatible to vasp.4.4
   GGA_COMPAT  = T    GGA compatible to vasp.4.4-vasp.4.6
   LMAXPAW     = -100 max onsite density
   LMAXMIX     =    2 max onsite mixed and CHGCAR
   VOSKOWN=      0    Vosko Wilk Nusair interpolation
   ROPT   =    0.00000
 Ionic relaxation
   EDIFFG = 0.1E-05   stopping-criterion for IOM
   NSW    =    100    number of steps for IOM
   NBLOCK =      1;   KBLOCK =    100    inner block; outer block 
   IBRION =      2    ionic relax: 0-MD 1-quasi-New 2-CG
   NFREE  =      1    steps in history (QN), initial steepest desc. (CG)
   ISIF   =      2    stress and relaxation
   IWAVPR =     11    prediction:  0-non 1-charg 2-wave 3-comb
   ISYM   =      2    0-nonsym 1-usesym 2-fastsym
   LCORR  =      T    Harris-Foulkes like correction to forces

   POTIM  = 0.5000    time-step for ionic-motion
   TEIN   =    0.0    initial temperature
   TEBEG  =    0.0;   TEEND  =   0.0 temperature during run
   SMASS  =  -3.00    Nose mass-parameter (am)
   estimated Nose-frequenzy (Omega)   =  0.10E-29 period in steps = 0.13E+47 mass=  -0.229E-26a.u.
   SCALEE = 1.0000    scale energy and forces
   NPACO  =    256;   APACO  = 16.0  distance and # of slots for P.C.
   PSTRESS=    0.0 pullay stress

  Mass of Ions in am
   POMASS =   1.00
  Ionic Valenz
   ZVAL   =   1.00
  Atomic Wigner-Seitz radii
   RWIGS  =  -1.00
  virtual crystal weights 
   VCA    =   1.00
   NELECT =       1.0000    total number of electrons
   NUPDOWN=      -1.0000    fix difference up-down

 DOS related values:
   EMIN   =  10.00;   EMAX   =-10.00  energy-range for DOS
   EFERMI =   0.00
   ISMEAR =     0;   SIGMA  =   0.20  broadening in eV -4-tet -1-fermi 0-gaus

 Electronic relaxation 2 (details)
   IALGO  =     38    algorithm
   LDIAG  =      T    sub-space diagonalisation (order eigenvalues)
   LSUBROT=      F    optimize rotation matrix (better conditioning)
   TURBO    =      0    0=normal 1=particle mesh
   IRESTART =      0    0=no restart 2=restart with 2 vectors
   NREBOOT  =      0    no. of reboots
   NMIN     =      0    reboot dimension
   EREF     =   0.00    reference energy to select bands
   IMIX   =      4    mixing-type and parameters
     AMIX     =   0.40;   BMIX     =  1.00
     AMIX_MAG =   1.60;   BMIX_MAG =  1.00
     AMIN     =   0.10
     WC   =   100.;   INIMIX=   1;  MIXPRE=   1;  MAXMIX= -45

 Intra band minimization:
   WEIMIN = 0.0010     energy-eigenvalue tresh-hold
   EBREAK =  0.62E-08  absolut break condition
   DEPER  =   0.30     relativ break condition  

   TIME   =   0.40     timestep for ELM

  volume/ion in A,a.u.               =    1000.00      6748.33
  Fermi-wavevector in a.u.,A,eV,Ry     =   0.163710  0.309367  0.364649  0.026801
  Thomas-Fermi vector in A             =   0.862763

 Write flags
   LWAVE        =      T    write WAVECAR
   LDOWNSAMPLE  =      F    k-point downsampling of WAVECAR
   LCHARG       =      T    write CHGCAR
   LVTOT        =      F    write LOCPOT, total local potential
   LVHAR        =      F    write LOCPOT, Hartree potential only
   LELF         =      F    write electronic localiz. function (ELF)
   LORBIT       =      0    0 simple, 1 ext, 2 COOP (PROOUT), +10 PAW based schemes


 Dipole corrections
   LMONO  =      F    monopole corrections only (constant potential shift)
   LDIPOL =      F    correct potential (dipole corrections)
   IDIPOL =      0    1-x, 2-y, 3-z, 4-all directions 
   EPSILON=  1.0000000 bulk dielectric constant

 Exchange correlation treatment:
   GGA     =    --    GGA type
   LEXCH   =     8    internal setting for exchange type
   VOSKOWN=      0    Vosko Wilk Nusair interpolation
   LHFCALC =     F    Hartree Fock is set to
   LHFONE  =     F    Hartree Fock one center treatment
   AEXX    =    0.0000 exact exchange contribution

 Linear response parameters
   LEPSILON=     F    determine dielectric tensor
   LRPA    =     F    only Hartree local field effects (RPA)
   LNABLA  =     F    use nabla operator in PAW spheres
   LVEL    =     F    velocity operator in full k-point grid
   LINTERFAST=   F  fast interpolation
   KINTER  =     0    interpolate to denser k-point grid
   CSHIFT  =0.1000    complex shift for real part using Kramers Kronig
   OMEGAMAX=  -1.0    maximum frequency
   DEG_THRESHOLD= 0.2000000E-02 threshold for treating states as degnerate
   RTIME   =   -0.100 relaxation time in fs
  (WPLASMAI=    0.000 imaginary part of plasma frequency in eV, 0.658/RTIME)
   DFIELD  = 0.0000000 0.0000000 0.0000000 field for delta impulse in time

 Orbital magnetization related:
   ORBITALMAG=     F  switch on orbital magnetization
   LCHIMAG   =     F  perturbation theory with respect to B field
   DQ        =  0.001000  dq finite difference perturbation B field
   LLRAUG    =     F  two centre corrections for induced B field



--------------------------------------------------------------------------------------------------------


 conjugate gradient relaxation of ions
 charge density and potential will be updated during run
 non-spin polarized calculation
 Variant of blocked Davidson
 Davidson routine will perform the subspace rotation
 perform sub-space diagonalisation
    after iterative eigenvector-optimisation
 modified Broyden-mixing scheme, WC =      100.0
 initial mixing is a Kerker type mixing with AMIX =  0.4000 and BMIX =      1.0000
 Hartree-type preconditioning will be used
 using additional bands            3
 reciprocal scheme for non local part
 calculate Harris-corrections to forces   (improved forces if not selfconsistent)
 use gradient corrections 
 use of overlap-Matrix (Vanderbilt PP)
 Gauss-broadening in eV      SIGMA  =   0.20


--------------------------------------------------------------------------------------------------------


  energy-cutoff  :      500.00
  volume of cell :     1000.00
      direct lattice vectors                 reciprocal lattice vectors
    10.000000000  0.000000000  0.000000000     0.100000000  0.000000000  0.000000000
     0.000000000 10.000000000  0.000000000     0.000000000  0.100000000  0.000000000
     0.000000000  0.000000000 10.000000000     0.000000000  0.000000000  0.100000000

  length of vectors
    10.000000000 10.000000000 10.000000000     0.100000000  0.100000000  0.100000000



 k-points in units of 2pi/SCALE and weight: KPOINTS created by Atomic Simulation Env
   0.00000000  0.00000000  0.00000000       0.000
   0.00666667  0.00000000  0.00000000       0.002
   0.01333333  0.00000000  0.00000000       0.002
   0.02000000  0.00000000  0.00000000       0.002
   0.02666667  0.00000000  0.00000000       0.002
   0.03333333  0.00000000  0.00000000       0.002
   0.04000000  0.00000000  0.00000000       0.002
   0.04666667  0.00000000  0.00000000       0.002
   0.00666667  0.00666667  0.00000000       0.004
   0.01333333  0.00666667  0.00000000       0.007
   0.02000000  0.00666667  0.00000000       0.007
   0.02666667  0.00666667  0.00000000       0.007
   0.03333333  0.00666667  0.00000000       0.007
   0.04000000  0.00666667  0.00000000       0.007
   0.04666667  0.00666667  0.00000000       0.007
   0.01333333  0.01333333  0.00000000       0.004
   0.02000000  0.01333333  0.00000000       0.007
   0.02666667  0.01333333  0.00000000       0.007
   0.03333333  0.01333333  0.00000000       0.007
   0.04000000  0.01333333  0.00000000       0.007
   0.04666667  0.01333333  0.00000000       0.007
   0.02000000  0.02000000  0.00000000       0.004
   0.02666667  0.02000000  0.00000000       0.007
   0.03333333  0.02000000  0.00000000       0.007
   0.04000000  0.02000000  0.00000000       0.007
   0.04666667  0.02000000  0.00000000       0.007
   0.02666667  0.02666667  0.00000000       0.004
   0.03333333  0.02666667  0.00000000       0.007
   0.04000000  0.02666667  0.00000000       0.007
   0.04666667  0.02666667  0.00000000       0.007
   0.03333333  0.03333333  0.00000000       0.004
   0.04000000  0.03333333  0.00000000       0.007
   0.04666667  0.03333333  0.00000000       0.007
   0.04000000  0.04000000  0.00000000       0.004
   0.04666667  0.04000000  0.00000000       0.007
   0.04666667  0.04666667  0.00000000       0.004
   0.00666667  0.00666667  0.00666667       0.002
   0.01333333  0.00666667  0.00666667       0.007
   0.02000000  0.00666667  0.00666667       0.007
   0.02666667  0.00666667  0.00666667       0.007
   0.03333333  0.00666667  0.00666667       0.007
   0.04000000  0.00666667  0.00666667       0.007
   0.04666667  0.00666667  0.00666667       0.007
   0.01333333  0.01333333  0.00666667       0.007
   0.02000000  0.01333333  0.00666667       0.014
   0.02666667  0.01333333  0.00666667       0.014
   0.03333333  0.01333333  0.00666667       0.014
   0.04000000  0.01333333  0.00666667       0.014
   0.04666667  0.01333333  0.00666667       0.014
   0.02000000  0.02000000  0.00666667       0.007
   0.02666667  0.02000000  0.00666667       0.014
   0.03333333  0.02000000  0.00666667       0.014
   0.04000000  0.02000000  0.00666667       0.014
   0.04666667  0.02000000  0.00666667       0.014
   0.02666667  0.02666667  0.00666667       0.007
   0.03333333  0.02666667  0.00666667       0.014
   0.04000000  0.02666667  0.00666667       0.014
   0.04666667  0.02666667  0.00666667       0.014
   0.03333333  0.03333333  0.00666667       0.007
   0.04000000  0.03333333  0.00666667       0.014
   0.04666667  0.03333333  0.00666667       0.014
   0.04000000  0.04000000  0.00666667       0.007
   0.04666667  0.04000000  0.00666667       0.014
   0.04666667  0.04666667  0.00666667       0.007
   0.01333333  0.01333333  0.01333333       0.002
   0.02000000  0.01333333  0.01333333       0.007
   0.02666667  0.01333333  0.01333333       0.007
   0.03333333  0.01333333  0.01333333       0.007
   0.04000000  0.01333333  0.01333333       0.007
   0.04666667  0.01333333  0.01333333       0.007
   0.02000000  0.02000000  0.01333333       0.007
   0.02666667  0.02000000  0.01333333       0.014
   0.03333333  0.02000000  0.01333333       0.014
   0.04000000  0.02000000  0.01333333       0.014
   0.04666667  0.02000000  0.01333333       0.014
   0.02666667  0.02666667  0.01333333       0.007
   0.03333333  0.02666667  0.01333333       0.014
   0.04000000  0.02666667  0.01333333       0.014
   0.04666667  0.02666667  0.01333333       0.014
   0.03333333  0.03333333  0.01333333       0.007
   0.04000000  0.03333333  0.01333333       0.014
   0.04666667  0.03333333  0.01333333       0.014
   0.04000000  0.04000000  0.01333333       0.007
   0.04666667  0.04000000  0.01333333       0.014
   0.04666667  0.04666667  0.01333333       0.007
   0.02000000  0.02000000  0.02000000       0.002
   0.02666667  0.02000000  0.02000000       0.007
   0.03333333  0.02000000  0.02000000       0.007
   0.04000000  0.02000000  0.02000000       0.007
   0.04666667  0.02000000  0.02000000       0.007
   0.02666667  0.02666667  0.02000000       0.007
   0.03333333  0.02666667  0.02000000       0.014
   0.04000000  0.02666667  0.02000000       0.014
   0.04666667  0.02666667  0.02000000       0.014
   0.03333333  0.03333333  0.02000000       0.007
   0.04000000  0.03333333  0.02000000       0.014
   0.04666667  0.03333333  0.02000000       0.014
   0.04000000  0.04000000  0.02000000       0.007
   0.04666667  0.04000000  0.02000000       0.014
   0.04666667  0.04666667  0.02000000       0.007
   0.02666667  0.02666667  0.02666667       0.002
   0.03333333  0.02666667  0.02666667       0.007
   0.04000000  0.02666667  0.02666667       0.007
   0.04666667  0.02666667  0.02666667       0.007
   0.03333333  0.03333333  0.02666667       0.007
   0.04000000  0.03333333  0.02666667       0.014
   0.04666667  0.03333333  0.02666667       0.014
   0.04000000  0.04000000  0.02666667       0.007
   0.04666667  0.04000000  0.02666667       0.014
   0.04666667  0.04666667  0.02666667       0.007
   0.03333333  0.03333333  0.03333333       0.002
   0.04000000  0.03333333  0.03333333       0.007
   0.04666667  0.03333333  0.03333333       0.007
   0.04000000  0.04000000  0.03333333       0.007
   0.04666667  0.04000000  0.03333333       0.014
   0.04666667  0.04666667  0.03333333       0.007
   0.04000000  0.04000000  0.04000000       0.002
   0.04666667  0.04000000  0.04000000       0.007
   0.04666667  0.04666667  0.04000000       0.007
   0.04666667  0.04666667  0.04666667       0.002

 k-points in reciprocal lattice and weights: KPOINTS created by Atomic Simulation Env
   0.00000000  0.00000000  0.00000000       0.000
   0.06666667  0.00000000  0.00000000       0.002
   0.13333333  0.00000000  0.00000000       0.002
   0.20000000  0.00000000  0.00000000       0.002
   0.26666667  0.00000000  0.00000000       0.002
   0.33333333  0.00000000  0.00000000       0.002
   0.40000000  0.00000000  0.00000000       0.002
   0.46666667  0.00000000  0.00000000       0.002
   0.06666667  0.06666667  0.00000000       0.004
   0.13333333  0.06666667  0.00000000       0.007
   0.20000000  0.06666667  0.00000000       0.007
   0.26666667  0.06666667  0.00000000       0.007
   0.33333333  0.06666667  0.00000000       0.007
   0.40000000  0.06666667  0.00000000       0.007
   0.46666667  0.06666667  0.00000000       0.007
   0.13333333  0.13333333  0.00000000       0.004
   0.20000000  0.13333333  0.00000000       0.007
   0.26666667  0.13333333  0.00000000       0.007
   0.33333333  0.13333333  0.00000000       0.007
   0.40000000  0.13333333  0.00000000       0.007
   0.46666667  0.13333333  0.00000000       0.007
   0.20000000  0.20000000  0.00000000       0.004
   0.26666667  0.20000000  0.00000000       0.007
   0.33333333  0.20000000  0.00000000       0.007
   0.40000000  0.20000000  0.00000000       0.007
   0.46666667  0.20000000  0.00000000       0.007
   0.26666667  0.26666667  0.00000000       0.004
   0.33333333  0.26666667  0.00000000       0.007
   0.40000000  0.26666667  0.00000000       0.007
   0.46666667  0.26666667  0.00000000       0.007
   0.33333333  0.33333333  0.00000000       0.004
   0.40000000  0.33333333  0.00000000       0.007
   0.46666667  0.33333333  0.00000000       0.007
   0.40000000  0.40000000  0.00000000       0.004
   0.46666667  0.40000000  0.00000000       0.007
   0.46666667  0.46666667  0.00000000       0.004
   0.06666667  0.06666667  0.06666667       0.002
   0.13333333  0.06666667  0.06666667       0.007
   0.20000000  0.06666667  0.06666667       0.007
   0.26666667  0.06666667  0.06666667       0.007
   0.33333333  0.06666667  0.06666667       0.007
   0.40000000  0.06666667  0.06666667       0.007
   0.46666667  0.06666667  0.06666667       0.007
   0.13333333  0.13333333  0.06666667       0.007
   0.20000000  0.13333333  0.06666667       0.014
   0.26666667  0.13333333  0.06666667       0.014
   0.33333333  0.13333333  0.06666667       0.014
   0.40000000  0.13333333  0.06666667       0.014
   0.46666667  0.13333333  0.06666667       0.014
   0.20000000  0.20000000  0.06666667       0.007
   0.26666667  0.20000000  0.06666667       0.014
   0.33333333  0.20000000  0.06666667       0.014
   0.40000000  0.20000000  0.06666667       0.014
   0.46666667  0.20000000  0.06666667       0.014
   0.26666667  0.26666667  0.06666667       0.007
   0.33333333  0.26666667  0.06666667       0.014
   0.40000000  0.26666667  0.06666667       0.014
   0.46666667  0.26666667  0.06666667       0.014
   0.33333333  0.33333333  0.06666667       0.007
   0.40000000  0.33333333  0.06666667       0.014
   0.46666667  0.33333333  0.06666667       0.014
   0.40000000  0.40000000  0.06666667       0.007
   0.46666667  0.40000000  0.06666667       0.014
   0.46666667  0.46666667  0.06666667       0.007
   0.13333333  0.13333333  0.13333333       0.002
   0.20000000  0.13333333  0.13333333       0.007
   0.26666667  0.13333333  0.13333333       0.007
   0.33333333  0.13333333  0.13333333       0.007
   0.40000000  0.13333333  0.13333333       0.007
   0.46666667  0.13333333  0.13333333       0.007
   0.20000000  0.20000000  0.13333333       0.007
   0.26666667  0.20000000  0.13333333       0.014
   0.33333333  0.20000000  0.13333333       0.014
   0.40000000  0.20000000  0.13333333       0.014
   0.46666667  0.20000000  0.13333333       0.014
   0.26666667  0.26666667  0.13333333       0.007
   0.33333333  0.26666667  0.13333333       0.014
   0.40000000  0.26666667  0.13333333       0.014
   0.46666667  0.26666667  0.13333333       0.014
   0.33333333  0.33333333  0.13333333       0.007
   0.40000000  0.33333333  0.13333333       0.014
   0.46666667  0.33333333  0.13333333       0.014
   0.40000000  0.40000000  0.13333333       0.007
   0.46666667  0.40000000  0.13333333       0.014
   0.46666667  0.46666667  0.13333333       0.007
   0.20000000  0.20000000  0.20000000       0.002
   0.26666667  0.20000000  0.20000000       0.007
   0.33333333  0.20000000  0.20000000       0.007
   0.40000000  0.20000000  0.20000000       0.007
   0.46666667  0.20000000  0.20000000       0.007
   0.26666667  0.26666667  0.20000000       0.007
   0.33333333  0.26666667  0.20000000       0.014
   0.40000000  0.26666667  0.20000000       0.014
   0.46666667  0.26666667  0.20000000       0.014
   0.33333333  0.33333333  0.20000000       0.007
   0.40000000  0.33333333  0.20000000       0.014
   0.46666667  0.33333333  0.20000000       0.014
   0.40000000  0.40000000  0.20000000       0.007
   0.46666667  0.40000000  0.20000000       0.014
   0.46666667  0.46666667  0.20000000       0.007
   0.26666667  0.26666667  0.26666667       0.002
   0.33333333  0.26666667  0.26666667       0.007
   0.40000000  0.26666667  0.26666667       0.007
   0.46666667  0.26666667  0.26666667       0.007
   0.33333333  0.33333333  0.26666667       0.007
   0.40000000  0.33333333  0.26666667       0.014
   0.46666667  0.33333333  0.26666667       0.014
   0.40000000  0.40000000  0.26666667       0.007
   0.46666667  0.40000000  0.26666667       0.014
   0.46666667  0.46666667  0.26666667       0.007
   0.33333333  0.33333333  0.33333333       0.002
   0.40000000  0.33333333  0.33333333       0.007
   0.46666667  0.33333333  0.33333333       0.007
   0.40000000  0.40000000  0.33333333       0.007
   0.46666667  0.40000000  0.33333333       0.014
   0.46666667  0.46666667  0.33333333       0.007
   0.40000000  0.40000000  0.40000000       0.002
   0.46666667  0.40000000  0.40000000       0.007
   0.46666667  0.46666667  0.40000000       0.007
   0.46666667  0.46666667  0.46666667       0.002

 position of ions in fractional coordinates (direct lattice) 
   0.50000000  0.50000000  0.50000000

 position of ions in cartesian coordinates  (Angst):
   5.00000000  5.00000000  5.00000000



--------------------------------------------------------------------------------------------------------


 k-point   1 :   0.0000 0.0000 0.0000  plane waves:   25413
 k-point   2 :   0.0667 0.0000 0.0000  plane waves:   25441
 k-point   3 :   0.1333 0.0000 0.0000  plane waves:   25393
 k-point   4 :   0.2000 0.0000 0.0000  plane waves:   25381
 k-point   5 :   0.2667 0.0000 0.0000  plane waves:   25356
 k-point   6 :   0.3333 0.0000 0.0000  plane waves:   25404
 k-point   7 :   0.4000 0.0000 0.0000  plane waves:   25376
 k-point   8 :   0.4667 0.0000 0.0000  plane waves:   25376
 k-point   9 :   0.0667 0.0667 0.0000  plane waves:   25433
 k-point  10 :   0.1333 0.0667 0.0000  plane waves:   25386
 k-point  11 :   0.2000 0.0667 0.0000  plane waves:   25385
 k-point  12 :   0.2667 0.0667 0.0000  plane waves:   25386
 k-point  13 :   0.3333 0.0667 0.0000  plane waves:   25383
 k-point  14 :   0.4000 0.0667 0.0000  plane waves:   25361
 k-point  15 :   0.4667 0.0667 0.0000  plane waves:   25364
 k-point  16 :   0.1333 0.1333 0.0000  plane waves:   25372
 k-point  17 :   0.2000 0.1333 0.0000  plane waves:   25372
 k-point  18 :   0.2667 0.1333 0.0000  plane waves:   25373
 k-point  19 :   0.3333 0.1333 0.0000  plane waves:   25389
 k-point  20 :   0.4000 0.1333 0.0000  plane waves:   25399
 k-point  21 :   0.4667 0.1333 0.0000  plane waves:   25369
 k-point  22 :   0.2000 0.2000 0.0000  plane waves:   25382
 k-point  23 :   0.2667 0.2000 0.0000  plane waves:   25381
 k-point  24 :   0.3333 0.2000 0.0000  plane waves:   25384
 k-point  25 :   0.4000 0.2000 0.0000  plane waves:   25386
 k-point  26 :   0.4667 0.2000 0.0000  plane waves:   25402
 k-point  27 :   0.2667 0.2667 0.0000  plane waves:   25384
 k-point  28 :   0.3333 0.2667 0.0000  plane waves:   25398
 k-point  29 :   0.4000 0.2667 0.0000  plane waves:   25389
 k-point  30 :   0.4667 0.2667 0.0000  plane waves:   25393
 k-point  31 :   0.3333 0.3333 0.0000  plane waves:   25408
 k-point  32 :   0.4000 0.3333 0.0000  plane waves:   25400
 k-point  33 :   0.4667 0.3333 0.0000  plane waves:   25391
 k-point  34 :   0.4000 0.4000 0.0000  plane waves:   25398
 k-point  35 :   0.4667 0.4000 0.0000  plane waves:   25413
 k-point  36 :   0.4667 0.4667 0.0000  plane waves:   25432
 k-point  37 :   0.0667 0.0667 0.0667  plane waves:   25434
 k-point  38 :   0.1333 0.0667 0.0667  plane waves:   25388
 k-point  39 :   0.2000 0.0667 0.0667  plane waves:   25393
 k-point  40 :   0.2667 0.0667 0.0667  plane waves:   25390
 k-point  41 :   0.3333 0.0667 0.0667  plane waves:   25388
 k-point  42 :   0.4000 0.0667 0.0667  plane waves:   25371
 k-point  43 :   0.4667 0.0667 0.0667  plane waves:   25370
 k-point  44 :   0.1333 0.1333 0.0667  plane waves:   25381
 k-point  45 :   0.2000 0.1333 0.0667  plane waves:   25376
 k-point  46 :   0.2667 0.1333 0.0667  plane waves:   25382
 k-point  47 :   0.3333 0.1333 0.0667  plane waves:   25374
 k-point  48 :   0.4000 0.1333 0.0667  plane waves:   25398
 k-point  49 :   0.4667 0.1333 0.0667  plane waves:   25396
 k-point  50 :   0.2000 0.2000 0.0667  plane waves:   25357
 k-point  51 :   0.2667 0.2000 0.0667  plane waves:   25379
 k-point  52 :   0.3333 0.2000 0.0667  plane waves:   25374
 k-point  53 :   0.4000 0.2000 0.0667  plane waves:   25379
 k-point  54 :   0.4667 0.2000 0.0667  plane waves:   25398
 k-point  55 :   0.2667 0.2667 0.0667  plane waves:   25387
 k-point  56 :   0.3333 0.2667 0.0667  plane waves:   25391
 k-point  57 :   0.4000 0.2667 0.0667  plane waves:   25384
 k-point  58 :   0.4667 0.2667 0.0667  plane waves:   25393
 k-point  59 :   0.3333 0.3333 0.0667  plane waves:   25395
 k-point  60 :   0.4000 0.3333 0.0667  plane waves:   25408
 k-point  61 :   0.4667 0.3333 0.0667  plane waves:   25383
 k-point  62 :   0.4000 0.4000 0.0667  plane waves:   25403
 k-point  63 :   0.4667 0.4000 0.0667  plane waves:   25410
 k-point  64 :   0.4667 0.4667 0.0667  plane waves:   25414
 k-point  65 :   0.1333 0.1333 0.1333  plane waves:   25374
 k-point  66 :   0.2000 0.1333 0.1333  plane waves:   25380
 k-point  67 :   0.2667 0.1333 0.1333  plane waves:   25393
 k-point  68 :   0.3333 0.1333 0.1333  plane waves:   25395
 k-point  69 :   0.4000 0.1333 0.1333  plane waves:   25388
 k-point  70 :   0.4667 0.1333 0.1333  plane waves:   25390
 k-point  71 :   0.2000 0.2000 0.1333  plane waves:   25381
 k-point  72 :   0.2667 0.2000 0.1333  plane waves:   25388
 k-point  73 :   0.3333 0.2000 0.1333  plane waves:   25381
 k-point  74 :   0.4000 0.2000 0.1333  plane waves:   25386
 k-point  75 :   0.4667 0.2000 0.1333  plane waves:   25399
 k-point  76 :   0.2667 0.2667 0.1333  plane waves:   25383
 k-point  77 :   0.3333 0.2667 0.1333  plane waves:   25390
 k-point  78 :   0.4000 0.2667 0.1333  plane waves:   25395
 k-point  79 :   0.4667 0.2667 0.1333  plane waves:   25381
 k-point  80 :   0.3333 0.3333 0.1333  plane waves:   25390
 k-point  81 :   0.4000 0.3333 0.1333  plane waves:   25388
 k-point  82 :   0.4667 0.3333 0.1333  plane waves:   25390
 k-point  83 :   0.4000 0.4000 0.1333  plane waves:   25387
 k-point  84 :   0.4667 0.4000 0.1333  plane waves:   25395
 k-point  85 :   0.4667 0.4667 0.1333  plane waves:   25408
 k-point  86 :   0.2000 0.2000 0.2000  plane waves:   25374
 k-point  87 :   0.2667 0.2000 0.2000  plane waves:   25380
 k-point  88 :   0.3333 0.2000 0.2000  plane waves:   25383
 k-point  89 :   0.4000 0.2000 0.2000  plane waves:   25399
 k-point  90 :   0.4667 0.2000 0.2000  plane waves:   25374
 k-point  91 :   0.2667 0.2667 0.2000  plane waves:   25393
 k-point  92 :   0.3333 0.2667 0.2000  plane waves:   25381
 k-point  93 :   0.4000 0.2667 0.2000  plane waves:   25384
 k-point  94 :   0.4667 0.2667 0.2000  plane waves:   25386
 k-point  95 :   0.3333 0.3333 0.2000  plane waves:   25401
 k-point  96 :   0.4000 0.3333 0.2000  plane waves:   25392
 k-point  97 :   0.4667 0.3333 0.2000  plane waves:   25374
 k-point  98 :   0.4000 0.4000 0.2000  plane waves:   25385
 k-point  99 :   0.4667 0.4000 0.2000  plane waves:   25392
 k-point 100 :   0.4667 0.4667 0.2000  plane waves:   25408
 k-point 101 :   0.2667 0.2667 0.2667  plane waves:   25368
 k-point 102 :   0.3333 0.2667 0.2667  plane waves:   25386
 k-point 103 :   0.4000 0.2667 0.2667  plane waves:   25369
 k-point 104 :   0.4667 0.2667 0.2667  plane waves:   25366
 k-point 105 :   0.3333 0.3333 0.2667  plane waves:   25367
 k-point 106 :   0.4000 0.3333 0.2667  plane waves:   25393
 k-point 107 :   0.4667 0.3333 0.2667  plane waves:   25377
 k-point 108 :   0.4000 0.4000 0.2667  plane waves:   25388
 k-point 109 :   0.4667 0.4000 0.2667  plane waves:   25390
 k-point 110 :   0.4667 0.4667 0.2667  plane waves:   25379
 k-point 111 :   0.3333 0.3333 0.3333  plane waves:   25329
 k-point 112 :   0.4000 0.3333 0.3333  plane waves:   25386
 k-point 113 :   0.4667 0.3333 0.3333  plane waves:   25388
 k-point 114 :   0.4000 0.4000 0.3333  plane waves:   25375
 k-point 115 :   0.4667 0.4000 0.3333  plane waves:   25376
 k-point 116 :   0.4667 0.4667 0.3333  plane waves:   25389
 k-point 117 :   0.4000 0.4000 0.4000  plane waves:   25389
 k-point 118 :   0.4667 0.4000 0.4000  plane waves:   25385
 k-point 119 :   0.4667 0.4667 0.4000  plane waves:   25399
 k-point 120 :   0.4667 0.4667 0.4667  plane waves:   25383

 maximum and minimum number of plane-waves per node :     25441    25329

 maximum number of plane-waves:     25441
 maximum index in each direction: 
   IXMAX=   18   IYMAX=   18   IZMAX=   18
   IXMIN=  -18   IYMIN=  -18   IZMIN=  -18


 serial   3D FFT for wavefunctions
 parallel 3D FFT for charge:
    minimum data exchange during FFTs selected (reduces bandwidth)


 total amount of memory used by VASP MPI-rank0   471931. kBytes
=======================================================================

   base      :      30000. kBytes
   nonl-proj :     122523. kBytes
   fftplans  :      48668. kBytes
   grid      :      75314. kBytes
   one-center:          1. kBytes
   wavefun   :     195425. kBytes

     INWAV:  cpu time    0.0000: real time    0.0000
 Broyden mixing: mesh for mixing (old mesh)
   NGX = 37   NGY = 37   NGZ = 37
  (NGX  =112   NGY  =112   NGZ  =112)
  gives a total of  50653 points

 initial charge density was supplied:
 charge density of overlapping atoms calculated
 number of electron       1.0000000 magnetization 
 keeping initial charge density in first step


--------------------------------------------------------------------------------------------------------


 Maximum index for augmentation-charges          799 (set IRDMAX)


--------------------------------------------------------------------------------------------------------


 First call to EWALD:  gamma=   0.177
 Maximum number of real-space cells 3x 3x 3
 Maximum number of reciprocal cells 3x 3x 3

    FEWALD:  cpu time    0.0006: real time    0.0006


--------------------------------------- Iteration      1(   1)  ---------------------------------------


    POTLOK:  cpu time    0.6987: real time    0.7002
    SETDIJ:  cpu time    0.0011: real time    0.0011
     EDDAV:  cpu time    9.9370: real time    9.9732
       DOS:  cpu time    0.0024: real time    0.0024
    --------------------------------------------
      LOOP:  cpu time   10.6391: real time   10.6769

 eigenvalue-minimisations  :   960
 total energy-change (2. order) : 0.2939917E+01  (-0.6463325E+01)
 number of electron       1.0000000 magnetization 
 augmentation part        1.0000000 magnetization 

 Free energy of the ion-electron system (eV)
  ---------------------------------------------------
  alpha Z        PSCENC =         0.00243617
  Ewald energy   TEWEN  =        -2.04282400
  -Hartree energ DENC   =        -5.86380841
  -exchange      EXHF   =         0.00000000
  -V(xc)+E(xc)   XCENC  =         1.88895337
  PAW double counting   =         2.13402744       -2.14290522
  entropy T*S    EENTRO =        -0.01094419
  eigenvalues    EBANDS =        -3.51144828
  atomic energy  EATOM  =        12.48642988
  Solvation  Ediel_sol  =         0.00000000
  ---------------------------------------------------
  free energy    TOTEN  =         2.93991675 eV

  energy without entropy =        2.95086094  energy(sigma->0) =        2.94538884


--------------------------------------------------------------------------------------------------------




--------------------------------------- Iteration      1(   2)  ---------------------------------------


     EDDAV:  cpu time   11.6392: real time   11.6789
       DOS:  cpu time    0.0025: real time    0.0025
    --------------------------------------------
      LOOP:  cpu time   11.6417: real time   11.6814

 eigenvalue-minimisations  :  1164
 total energy-change (2. order) :-0.2757286E+01  (-0.2739495E+01)
 number of electron       1.0000000 magnetization 
 augmentation part        1.0000000 magnetization 

 Free energy of the ion-electron system (eV)
  ---------------------------------------------------
  alpha Z        PSCENC =         0.00243617
  Ewald energy   TEWEN  =        -2.04282400
  -Hartree energ DENC   =        -5.86380841
  -exchange      EXHF   =         0.00000000
  -V(xc)+E(xc)   XCENC  =         1.88895337
  PAW double counting   =         2.13402744       -2.14290522
  entropy T*S    EENTRO =        -0.02426904
  eigenvalues    EBANDS =        -6.25540941
  atomic energy  EATOM  =        12.48642988
  Solvation  Ediel_sol  =         0.00000000
  ---------------------------------------------------
  free energy    TOTEN  =         0.18263077 eV

  energy without entropy =        0.20689981  energy(sigma->0) =        0.19476529


--------------------------------------------------------------------------------------------------------




--------------------------------------- Iteration      1(   3)  ---------------------------------------


     EDDAV:  cpu time   11.6536: real time   11.6957
       DOS:  cpu time    0.0025: real time    0.0025
    --------------------------------------------
      LOOP:  cpu time   11.6561: real time   11.6983

 eigenvalue-minimisations  :  1196
 total energy-change (2. order) :-0.2845711E+00  (-0.2045148E+00)
 number of electron       1.0000000 magnetization 
 augmentation part        1.0000000 magnetization 

 Free energy of the ion-electron system (eV)
  ---------------------------------------------------
  alpha Z        PSCENC =         0.00243617
  Ewald energy   TEWEN  =        -2.04282400
  -Hartree energ DENC   =        -5.86380841
  -exchange      EXHF   =         0.00000000
  -V(xc)+E(xc)   XCENC  =         1.88895337
  PAW double counting   =         2.13402744       -2.14290522
  entropy T*S    EENTRO =        -0.11233091
  eigenvalues    EBANDS =        -6.45191863
  atomic energy  EATOM  =        12.48642988
  Solvation  Ediel_sol  =         0.00000000
  ---------------------------------------------------
  free energy    TOTEN  =        -0.10194032 eV

  energy without entropy =        0.01039060  energy(sigma->0) =       -0.04577486


--------------------------------------------------------------------------------------------------------




--------------------------------------- Iteration      1(   4)  ---------------------------------------


     EDDAV:  cpu time   13.4024: real time   13.4488
       DOS:  cpu time    0.0025: real time    0.0025
    --------------------------------------------
      LOOP:  cpu time   13.4049: real time   13.4513

 eigenvalue-minimisations  :  1372
 total energy-change (2. order) :-0.1085905E-01  (-0.1035778E-01)
 number of electron       1.0000000 magnetization 
 augmentation part        1.0000000 magnetization 

 Free energy of the ion-electron system (eV)
  ---------------------------------------------------
  alpha Z        PSCENC =         0.00243617
  Ewald energy   TEWEN  =        -2.04282400
  -Hartree energ DENC   =        -5.86380841
  -exchange      EXHF   =         0.00000000
  -V(xc)+E(xc)   XCENC  =         1.88895337
  PAW double counting   =         2.13402744       -2.14290522
  entropy T*S    EENTRO =        -0.11283789
  eigenvalues    EBANDS =        -6.46227071
  atomic energy  EATOM  =        12.48642988
  Solvation  Ediel_sol  =         0.00000000
  ---------------------------------------------------
  free energy    TOTEN  =        -0.11279937 eV

  energy without entropy =        0.00003852  energy(sigma->0) =       -0.05638043


--------------------------------------------------------------------------------------------------------




--------------------------------------- Iteration      1(   5)  ---------------------------------------


     EDDAV:  cpu time   12.2645: real time   12.3082
       DOS:  cpu time    0.0024: real time    0.0024
    CHARGE:  cpu time    0.3432: real time    0.3442
    MIXING:  cpu time    0.0218: real time    0.0218
    --------------------------------------------
      LOOP:  cpu time   12.6319: real time   12.6767

 eigenvalue-minimisations  :  1280
 total energy-change (2. order) :-0.4390551E-04  (-0.4388732E-04)
 number of electron       0.9999998 magnetization 
 augmentation part        0.0135592 magnetization 

 Broyden mixing:
  rms(total) = 0.19675E-02    rms(broyden)= 0.18597E-02
  rms(prec ) = 0.18995E-02
  weight for this iteration     100.00

 Free energy of the ion-electron system (eV)
  ---------------------------------------------------
  alpha Z        PSCENC =         0.00243617
  Ewald energy   TEWEN  =        -2.04282400
  -Hartree energ DENC   =        -5.86380841
  -exchange      EXHF   =         0.00000000
  -V(xc)+E(xc)   XCENC  =         1.88895337
  PAW double counting   =         2.13402744       -2.14290522
  entropy T*S    EENTRO =        -0.11283791
  eigenvalues    EBANDS =        -6.46231459
  atomic energy  EATOM  =        12.48642988
  Solvation  Ediel_sol  =         0.00000000
  ---------------------------------------------------
  free energy    TOTEN  =        -0.11284328 eV

  energy without entropy =       -0.00000536  energy(sigma->0) =       -0.05642432


--------------------------------------------------------------------------------------------------------




--------------------------------------- Iteration      1(   6)  ---------------------------------------


    POTLOK:  cpu time    0.6778: real time    0.6792
    SETDIJ:  cpu time    0.0011: real time    0.0011
     EDDAV:  cpu time   11.8730: real time   11.9132
       DOS:  cpu time    0.0024: real time    0.0024
    CHARGE:  cpu time    0.3237: real time    0.3244
    MIXING:  cpu time    0.0203: real time    0.0204
    --------------------------------------------
      LOOP:  cpu time   12.8984: real time   12.9408

 eigenvalue-minimisations  :  1192
 total energy-change (2. order) :-0.3351435E-04  (-0.4574694E-06)
 number of electron       0.9999998 magnetization 
 augmentation part        0.0135600 magnetization 

 Broyden mixing:
  rms(total) = 0.11346E-02    rms(broyden)= 0.11270E-02
  rms(prec ) = 0.11500E-02
  weight for this iteration     100.00

 eigenvalues of (default mixing * dielectric matrix)
  average eigenvalue GAMMA=   2.5346
  2.5346

 Free energy of the ion-electron system (eV)
  ---------------------------------------------------
  alpha Z        PSCENC =         0.00243617
  Ewald energy   TEWEN  =        -2.04282400
  -Hartree energ DENC   =        -5.86322816
  -exchange      EXHF   =         0.00000000
  -V(xc)+E(xc)   XCENC  =         1.88884659
  PAW double counting   =         2.14749089       -2.15635193
  entropy T*S    EENTRO =        -0.11283791
  eigenvalues    EBANDS =        -6.46283832
  atomic energy  EATOM  =        12.48642988
  Solvation  Ediel_sol  =         0.00000000
  ---------------------------------------------------
  free energy    TOTEN  =        -0.11287679 eV

  energy without entropy =       -0.00003888  energy(sigma->0) =       -0.05645783


--------------------------------------------------------------------------------------------------------




--------------------------------------- Iteration      1(   7)  ---------------------------------------


    POTLOK:  cpu time    0.6890: real time    0.6907
    SETDIJ:  cpu time    0.0012: real time    0.0012
     EDDAV:  cpu time   10.4981: real time   10.5351
       DOS:  cpu time    0.0024: real time    0.0024
    CHARGE:  cpu time    0.3437: real time    0.3447
    MIXING:  cpu time    0.0249: real time    0.0250
    --------------------------------------------
      LOOP:  cpu time   11.5594: real time   11.5991

 eigenvalue-minimisations  :  1036
 total energy-change (2. order) :-0.1325412E-04  (-0.6323164E-06)
 number of electron       0.9999998 magnetization 
 augmentation part        0.0135597 magnetization 

 Broyden mixing:
  rms(total) = 0.40846E-04    rms(broyden)= 0.28802E-04
  rms(prec ) = 0.31031E-04
  weight for this iteration     100.00
  WARNING: grid for Broyden might be to small

 eigenvalues of (default mixing * dielectric matrix)
  average eigenvalue GAMMA=   1.9319
  1.2724  2.5914

 Free energy of the ion-electron system (eV)
  ---------------------------------------------------
  alpha Z        PSCENC =         0.00243617
  Ewald energy   TEWEN  =        -2.04282400
  -Hartree energ DENC   =        -5.86251599
  -exchange      EXHF   =         0.00000000
  -V(xc)+E(xc)   XCENC  =         1.88871294
  PAW double counting   =         2.16848389       -2.17732081
  entropy T*S    EENTRO =        -0.11283791
  eigenvalues    EBANDS =        -6.46345421
  atomic energy  EATOM  =        12.48642988
  Solvation  Ediel_sol  =         0.00000000
  ---------------------------------------------------
  free energy    TOTEN  =        -0.11289004 eV

  energy without entropy =       -0.00005213  energy(sigma->0) =       -0.05647109


--------------------------------------------------------------------------------------------------------




--------------------------------------- Iteration      1(   8)  ---------------------------------------


    POTLOK:  cpu time    0.6815: real time    0.6828
    SETDIJ:  cpu time    0.0011: real time    0.0011
     EDDAV:  cpu time   13.4111: real time   13.4543
       DOS:  cpu time    0.0025: real time    0.0025
    CHARGE:  cpu time    0.3283: real time    0.3293
    MIXING:  cpu time    0.0239: real time    0.0240
    --------------------------------------------
      LOOP:  cpu time   14.4484: real time   14.4940

 eigenvalue-minimisations  :  1396
 total energy-change (2. order) :-0.6372156E-06  (-0.2029523E-08)
 number of electron       0.9999998 magnetization 
 augmentation part        0.0135598 magnetization 

 Broyden mixing:
  rms(total) = 0.13640E-04    rms(broyden)= 0.12246E-04
  rms(prec ) = 0.14055E-04
  weight for this iteration     100.00
  WARNING: grid for Broyden might be to small

 eigenvalues of (default mixing * dielectric matrix)
  average eigenvalue GAMMA=   2.0591
  0.9797  2.6625  2.5352

 Free energy of the ion-electron system (eV)
  ---------------------------------------------------
  alpha Z        PSCENC =         0.00243617
  Ewald energy   TEWEN  =        -2.04282400
  -Hartree energ DENC   =        -5.86253397
  -exchange      EXHF   =         0.00000000
  -V(xc)+E(xc)   XCENC  =         1.88871849
  PAW double counting   =         2.16902537       -2.17786227
  entropy T*S    EENTRO =        -0.11283791
  eigenvalues    EBANDS =        -6.46344243
  atomic energy  EATOM  =        12.48642988
  Solvation  Ediel_sol  =         0.00000000
  ---------------------------------------------------
  free energy    TOTEN  =        -0.11289068 eV

  energy without entropy =       -0.00005277  energy(sigma->0) =       -0.05647173


--------------------------------------------------------------------------------------------------------




--------------------------------------- Iteration      1(   9)  ---------------------------------------


    POTLOK:  cpu time    0.7020: real time    0.7032
    SETDIJ:  cpu time    0.0011: real time    0.0011
     EDDAV:  cpu time   11.6069: real time   11.6435
       DOS:  cpu time    0.0024: real time    0.0024
    --------------------------------------------
      LOOP:  cpu time   12.3124: real time   12.3502

 eigenvalue-minimisations  :  1148
 total energy-change (2. order) :-0.2144188E-07  (-0.3594490E-09)
 number of electron       0.9999998 magnetization 
 augmentation part        0.0135598 magnetization 

 Free energy of the ion-electron system (eV)
  ---------------------------------------------------
  alpha Z        PSCENC =         0.00243617
  Ewald energy   TEWEN  =        -2.04282400
  -Hartree energ DENC   =        -5.86256997
  -exchange      EXHF   =         0.00000000
  -V(xc)+E(xc)   XCENC  =         1.88872711
  PAW double counting   =         2.16907174       -2.17790927
  entropy T*S    EENTRO =        -0.11283791
  eigenvalues    EBANDS =        -6.46341445
  atomic energy  EATOM  =        12.48642988
  Solvation  Ediel_sol  =         0.00000000
  ---------------------------------------------------
  free energy    TOTEN  =        -0.11289070 eV

  energy without entropy =       -0.00005279  energy(sigma->0) =       -0.05647175


--------------------------------------------------------------------------------------------------------




 average (electrostatic) potential at core
  the test charge radii are     0.5201
  (the norm of the test charge is              1.0000)
       1 -42.4338



 E-fermi :  -6.4634     XC(G=0):  -0.4408     alpha+bet : -0.0276

 Fermi energy:        -6.4634144404

 k-point     1 :       0.0000    0.0000    0.0000
  band No.  band energies     occupation 
      1      -6.4635      1.00073
      2      -0.1931      0.00000
      3       0.8488      0.00000
      4       0.8488      0.00000

 k-point     2 :       0.0667    0.0000    0.0000
  band No.  band energies     occupation 
      1      -6.4636      1.00078
      2      -0.1876      0.00000
      3       0.8010      0.00000
      4       0.8531      0.00000

 k-point     3 :       0.1333    0.0000    0.0000
  band No.  band energies     occupation 
      1      -6.4635      1.00060
      2      -0.1710      0.00000
      3       0.6976      0.00000
      4       0.8657      0.00000

 k-point     4 :       0.2000    0.0000    0.0000
  band No.  band energies     occupation 
      1      -6.4635      1.00049
      2      -0.1433      0.00000
      3       0.5804      0.00000
      4       0.8855      0.00000

 k-point     5 :       0.2667    0.0000    0.0000
  band No.  band energies     occupation 
      1      -6.4635      1.00033
      2      -0.1047      0.00000
      3       0.4642      0.00000
      4       0.9107      0.00000

 k-point     6 :       0.3333    0.0000    0.0000
  band No.  band energies     occupation 
      1      -6.4635      1.00036
      2      -0.0553      0.00000
      3       0.3545      0.00000
      4       0.9377      0.00000

 k-point     7 :       0.4000    0.0000    0.0000
  band No.  band energies     occupation 
      1      -6.4635      1.00022
      2       0.0045      0.00000
      3       0.2537      0.00000
      4       0.9616      0.00000

 k-point     8 :       0.4667    0.0000    0.0000
  band No.  band energies     occupation 
      1      -6.4634      1.00019
      2       0.0720      0.00000
      3       0.1654      0.00000
      4       0.9760      0.00000

 k-point     9 :       0.0667    0.0667    0.0000
  band No.  band energies     occupation 
      1      -6.4635      1.00074
      2      -0.1821      0.00000
      3       0.7908      0.00000
      4       0.8214      0.00000

 k-point    10 :       0.1333    0.0667    0.0000
  band No.  band energies     occupation 
      1      -6.4635      1.00056
      2      -0.1654      0.00000
      3       0.6987      0.00000
      4       0.8253      0.00000

 k-point    11 :       0.2000    0.0667    0.0000
  band No.  band energies     occupation 
      1      -6.4635      1.00048
      2      -0.1378      0.00000
      3       0.5833      0.00000
      4       0.8457      0.00000

 k-point    12 :       0.2667    0.0667    0.0000
  band No.  band energies     occupation 
      1      -6.4635      1.00038
      2      -0.0992      0.00000
      3       0.4681      0.00000
      4       0.8728      0.00000

 k-point    13 :       0.3333    0.0667    0.0000
  band No.  band energies     occupation 
      1      -6.4635      1.00029
      2      -0.0498      0.00000
      3       0.3589      0.00000
      4       0.9027      0.00000

 k-point    14 :       0.4000    0.0667    0.0000
  band No.  band energies     occupation 
      1      -6.4634      1.00017
      2       0.0099      0.00000
      3       0.2584      0.00000
      4       0.9301      0.00000

 k-point    15 :       0.4667    0.0667    0.0000
  band No.  band energies     occupation 
      1      -6.4634      1.00014
      2       0.0777      0.00000
      3       0.1702      0.00000
      4       0.9474      0.00000

 k-point    16 :       0.1333    0.1333    0.0000
  band No.  band energies     occupation 
      1      -6.4635      1.00047
      2      -0.1488      0.00000
      3       0.6794      0.00000
      4       0.7606      0.00000

 k-point    17 :       0.2000    0.1333    0.0000
  band No.  band energies     occupation 
      1      -6.4635      1.00039
      2      -0.1212      0.00000
      3       0.5884      0.00000
      4       0.7609      0.00000

 k-point    18 :       0.2667    0.1333    0.0000
  band No.  band energies     occupation 
      1      -6.4635      1.00030
      2      -0.0827      0.00000
      3       0.4786      0.00000
      4       0.7873      0.00000

 k-point    19 :       0.3333    0.1333    0.0000
  band No.  band energies     occupation 
      1      -6.4635      1.00025
      2      -0.0334      0.00000
      3       0.3717      0.00000
      4       0.8210      0.00000

 k-point    20 :       0.4000    0.1333    0.0000
  band No.  band energies     occupation 
      1      -6.4635      1.00021
      2       0.0263      0.00000
      3       0.2724      0.00000
      4       0.8543      0.00000

 k-point    21 :       0.4667    0.1333    0.0000
  band No.  band energies     occupation 
      1      -6.4634      1.00010
      2       0.0944      0.00000
      3       0.1844      0.00000
      4       0.8767      0.00000

 k-point    22 :       0.2000    0.2000    0.0000
  band No.  band energies     occupation 
      1      -6.4635      1.00033
      2      -0.0937      0.00000
      3       0.5690      0.00000
      4       0.6937      0.00000

 k-point    23 :       0.2667    0.2000    0.0000
  band No.  band energies     occupation 
      1      -6.4635      1.00024
      2      -0.0552      0.00000
      3       0.4894      0.00000
      4       0.6941      0.00000

 k-point    24 :       0.3333    0.2000    0.0000
  band No.  band energies     occupation 
      1      -6.4634      1.00016
      2      -0.0061      0.00000
      3       0.3908      0.00000
      4       0.7249      0.00000

 k-point    25 :       0.4000    0.2000    0.0000
  band No.  band energies     occupation 
      1      -6.4634      1.00010
      2       0.0534      0.00000
      3       0.2948      0.00000
      4       0.7618      0.00000

 k-point    26 :       0.4667    0.2000    0.0000
  band No.  band energies     occupation 
      1      -6.4634      1.00010
      2       0.1217      0.00000
      3       0.2077      0.00000
      4       0.7892      0.00000

 k-point    27 :       0.2667    0.2667    0.0000
  band No.  band energies     occupation 
      1      -6.4634      1.00016
      2      -0.0170      0.00000
      3       0.4751      0.00000
      4       0.6335      0.00000

 k-point    28 :       0.3333    0.2667    0.0000
  band No.  band energies     occupation 
      1      -6.4634      1.00011
      2       0.0318      0.00000
      3       0.4090      0.00000
      4       0.6365      0.00000

 k-point    29 :       0.4000    0.2667    0.0000
  band No.  band energies     occupation 
      1      -6.4634      1.00002
      2       0.0908      0.00000
      3       0.3232      0.00000
      4       0.6691      0.00000

 k-point    30 :       0.4667    0.2667    0.0000
  band No.  band energies     occupation 
      1      -6.4634      0.99999
      2       0.1587      0.00000
      3       0.2395      0.00000
      4       0.6993      0.00000

 k-point    31 :       0.3333    0.3333    0.0000
  band No.  band energies     occupation 
      1      -6.4634      1.00005
      2       0.0800      0.00000
      3       0.4027      0.00000
      4       0.5843      0.00000

 k-point    32 :       0.4000    0.3333    0.0000
  band No.  band energies     occupation 
      1      -6.4634      0.99996
      2       0.1378      0.00000
      3       0.3501      0.00000
      4       0.5894      0.00000

 k-point    33 :       0.4667    0.3333    0.0000
  band No.  band energies     occupation 
      1      -6.4634      0.99990
      2       0.2039      0.00000
      3       0.2776      0.00000
      4       0.6149      0.00000

 k-point    34 :       0.4000    0.4000    0.0000
  band No.  band energies     occupation 
      1      -6.4634      0.99989
      2       0.1931      0.00000
      3       0.3537      0.00000
      4       0.5442      0.00000

 k-point    35 :       0.4667    0.4000    0.0000
  band No.  band energies     occupation 
      1      -6.4634      0.99989
      2       0.2542      0.00000
      3       0.3144      0.00000
      4       0.5440      0.00000

 k-point    36 :       0.4667    0.4667    0.0000
  band No.  band energies     occupation 
      1      -6.4634      0.99990
      2       0.3024      0.00000
      3       0.3291      0.00000
      4       0.5015      0.00000

 k-point    37 :       0.0667    0.0667    0.0667
  band No.  band energies     occupation 
      1      -6.4635      1.00072
      2      -0.1765      0.00000
      3       0.7954      0.00000
      4       0.7954      0.00000

 k-point    38 :       0.1333    0.0667    0.0667
  band No.  band energies     occupation 
      1      -6.4635      1.00055
      2      -0.1599      0.00000
      3       0.7006      0.00000
      4       0.8090      0.00000

 k-point    39 :       0.2000    0.0667    0.0667
  band No.  band energies     occupation 
      1      -6.4635      1.00048
      2      -0.1323      0.00000
      3       0.5865      0.00000
      4       0.8306      0.00000

 k-point    40 :       0.2667    0.0667    0.0667
  band No.  band energies     occupation 
      1      -6.4635      1.00038
      2      -0.0937      0.00000
      3       0.4721      0.00000
      4       0.8582      0.00000

 k-point    41 :       0.3333    0.0667    0.0667
  band No.  band energies     occupation 
      1      -6.4635      1.00028
      2      -0.0443      0.00000
      3       0.3634      0.00000
      4       0.8885      0.00000

 k-point    42 :       0.4000    0.0667    0.0667
  band No.  band energies     occupation 
      1      -6.4634      1.00017
      2       0.0154      0.00000
      3       0.2632      0.00000
      4       0.9157      0.00000

 k-point    43 :       0.4667    0.0667    0.0667
  band No.  band energies     occupation 
      1      -6.4634      1.00013
      2       0.0833      0.00000
      3       0.1749      0.00000
      4       0.9324      0.00000

 k-point    44 :       0.1333    0.1333    0.0667
  band No.  band energies     occupation 
      1      -6.4635      1.00047
      2      -0.1433      0.00000
      3       0.6844      0.00000
      4       0.7520      0.00000

 k-point    45 :       0.2000    0.1333    0.0667
  band No.  band energies     occupation 
      1      -6.4635      1.00038
      2      -0.1157      0.00000
      3       0.5924      0.00000
      4       0.7561      0.00000

 k-point    46 :       0.2667    0.1333    0.0667
  band No.  band energies     occupation 
      1      -6.4635      1.00030
      2      -0.0772      0.00000
      3       0.4828      0.00000
      4       0.7834      0.00000

 k-point    47 :       0.3333    0.1333    0.0667
  band No.  band energies     occupation 
      1      -6.4634      1.00020
      2      -0.0279      0.00000
      3       0.3763      0.00000
      4       0.8170      0.00000

 k-point    48 :       0.4000    0.1333    0.0667
  band No.  band energies     occupation 
      1      -6.4634      1.00019
      2       0.0318      0.00000
      3       0.2772      0.00000
      4       0.8494      0.00000

 k-point    49 :       0.4667    0.1333    0.0667
  band No.  band energies     occupation 
      1      -6.4634      1.00015
      2       0.0999      0.00000
      3       0.1892      0.00000
      4       0.8706      0.00000

 k-point    50 :       0.2000    0.2000    0.0667
  band No.  band energies     occupation 
      1      -6.4635      1.00025
      2      -0.0882      0.00000
      3       0.5742      0.00000
      4       0.6907      0.00000

 k-point    51 :       0.2667    0.2000    0.0667
  band No.  band energies     occupation 
      1      -6.4635      1.00022
      2      -0.0497      0.00000
      3       0.4942      0.00000
      4       0.6929      0.00000

 k-point    52 :       0.3333    0.2000    0.0667
  band No.  band energies     occupation 
      1      -6.4634      1.00012
      2      -0.0006      0.00000
      3       0.3956      0.00000
      4       0.7240      0.00000

 k-point    53 :       0.4000    0.2000    0.0667
  band No.  band energies     occupation 
      1      -6.4634      1.00006
      2       0.0589      0.00000
      3       0.2997      0.00000
      4       0.7603      0.00000

 k-point    54 :       0.4667    0.2000    0.0667
  band No.  band energies     occupation 
      1      -6.4634      1.00007
      2       0.1272      0.00000
      3       0.2126      0.00000
      4       0.7867      0.00000

 k-point    55 :       0.2667    0.2667    0.0667
  band No.  band energies     occupation 
      1      -6.4634      1.00015
      2      -0.0115      0.00000
      3       0.4804      0.00000
      4       0.6332      0.00000

 k-point    56 :       0.3333    0.2667    0.0667
  band No.  band energies     occupation 
      1      -6.4634      1.00007
      2       0.0373      0.00000
      3       0.4140      0.00000
      4       0.6369      0.00000

 k-point    57 :       0.4000    0.2667    0.0667
  band No.  band energies     occupation 
      1      -6.4634      0.99999
      2       0.0962      0.00000
      3       0.3282      0.00000
      4       0.6694      0.00000

 k-point    58 :       0.4667    0.2667    0.0667
  band No.  band energies     occupation 
      1      -6.4634      0.99998
      2       0.1642      0.00000
      3       0.2445      0.00000
      4       0.6988      0.00000

 k-point    59 :       0.3333    0.3333    0.0667
  band No.  band energies     occupation 
      1      -6.4634      1.00000
      2       0.0854      0.00000
      3       0.4081      0.00000
      4       0.5852      0.00000

 k-point    60 :       0.4000    0.3333    0.0667
  band No.  band energies     occupation 
      1      -6.4634      0.99996
      2       0.1431      0.00000
      3       0.3554      0.00000
      4       0.5905      0.00000

 k-point    61 :       0.4667    0.3333    0.0667
  band No.  band energies     occupation 
      1      -6.4634      0.99987
      2       0.2092      0.00000
      3       0.2827      0.00000
      4       0.6156      0.00000

 k-point    62 :       0.4000    0.4000    0.0667
  band No.  band energies     occupation 
      1      -6.4634      0.99988
      2       0.1984      0.00000
      3       0.3592      0.00000
      4       0.5455      0.00000

 k-point    63 :       0.4667    0.4000    0.0667
  band No.  band energies     occupation 
      1      -6.4634      0.99986
      2       0.2595      0.00000
      3       0.3197      0.00000
      4       0.5452      0.00000

 k-point    64 :       0.4667    0.4667    0.0667
  band No.  band energies     occupation 
      1      -6.4634      0.99984
      2       0.3077      0.00000
      3       0.3345      0.00000
      4       0.5026      0.00000

 k-point    65 :       0.1333    0.1333    0.1333
  band No.  band energies     occupation 
      1      -6.4635      1.00040
      2      -0.1267      0.00000
      3       0.6991      0.00000
      4       0.6991      0.00000

 k-point    66 :       0.2000    0.1333    0.1333
  band No.  band energies     occupation 
      1      -6.4635      1.00034
      2      -0.0992      0.00000
      3       0.6018      0.00000
      4       0.7227      0.00000

 k-point    67 :       0.2667    0.1333    0.1333
  band No.  band energies     occupation 
      1      -6.4635      1.00028
      2      -0.0607      0.00000
      3       0.4944      0.00000
      4       0.7532      0.00000

 k-point    68 :       0.3333    0.1333    0.1333
  band No.  band energies     occupation 
      1      -6.4634      1.00020
      2      -0.0115      0.00000
      3       0.3895      0.00000
      4       0.7874      0.00000

 k-point    69 :       0.4000    0.1333    0.1333
  band No.  band energies     occupation 
      1      -6.4634      1.00011
      2       0.0482      0.00000
      3       0.2914      0.00000
      4       0.8191      0.00000

 k-point    70 :       0.4667    0.1333    0.1333
  band No.  band energies     occupation 
      1      -6.4634      1.00008
      2       0.1165      0.00000
      3       0.2035      0.00000
      4       0.8392      0.00000

 k-point    71 :       0.2000    0.2000    0.1333
  band No.  band energies     occupation 
      1      -6.4635      1.00026
      2      -0.0716      0.00000
      3       0.5895      0.00000
      4       0.6719      0.00000

 k-point    72 :       0.2667    0.2000    0.1333
  band No.  band energies     occupation 
      1      -6.4634      1.00019
      2      -0.0333      0.00000
      3       0.5077      0.00000
      4       0.6828      0.00000

 k-point    73 :       0.3333    0.2000    0.1333
  band No.  band energies     occupation 
      1      -6.4634      1.00009
      2       0.0158      0.00000
      3       0.4093      0.00000
      4       0.7158      0.00000

 k-point    74 :       0.4000    0.2000    0.1333
  band No.  band energies     occupation 
      1      -6.4634      1.00003
      2       0.0751      0.00000
      3       0.3141      0.00000
      4       0.7506      0.00000

 k-point    75 :       0.4667    0.2000    0.1333
  band No.  band energies     occupation 
      1      -6.4634      1.00003
      2       0.1436      0.00000
      3       0.2272      0.00000
      4       0.7742      0.00000

 k-point    76 :       0.2667    0.2667    0.1333
  band No.  band energies     occupation 
      1      -6.4634      1.00009
      2       0.0049      0.00000
      3       0.4961      0.00000
      4       0.6286      0.00000

 k-point    77 :       0.3333    0.2667    0.1333
  band No.  band energies     occupation 
      1      -6.4634      1.00002
      2       0.0536      0.00000
      3       0.4289      0.00000
      4       0.6358      0.00000

 k-point    78 :       0.4000    0.2667    0.1333
  band No.  band energies     occupation 
      1      -6.4634      0.99997
      2       0.1123      0.00000
      3       0.3430      0.00000
      4       0.6682      0.00000

 k-point    79 :       0.4667    0.2667    0.1333
  band No.  band energies     occupation 
      1      -6.4634      0.99989
      2       0.1803      0.00000
      3       0.2594      0.00000
      4       0.6953      0.00000

 k-point    80 :       0.3333    0.3333    0.1333
  band No.  band energies     occupation 
      1      -6.4634      0.99994
      2       0.1015      0.00000
      3       0.4240      0.00000
      4       0.5864      0.00000

 k-point    81 :       0.4000    0.3333    0.1333
  band No.  band energies     occupation 
      1      -6.4634      0.99986
      2       0.1591      0.00000
      3       0.3708      0.00000
      4       0.5928      0.00000

 k-point    82 :       0.4667    0.3333    0.1333
  band No.  band energies     occupation 
      1      -6.4634      0.99983
      2       0.2251      0.00000
      3       0.2979      0.00000
      4       0.6167      0.00000

 k-point    83 :       0.4000    0.4000    0.1333
  band No.  band energies     occupation 
      1      -6.4634      0.99979
      2       0.2142      0.00000
      3       0.3752      0.00000
      4       0.5488      0.00000

 k-point    84 :       0.4667    0.4000    0.1333
  band No.  band energies     occupation 
      1      -6.4634      0.99978
      2       0.2751      0.00000
      3       0.3354      0.00000
      4       0.5483      0.00000

 k-point    85 :       0.4667    0.4667    0.1333
  band No.  band energies     occupation 
      1      -6.4634      0.99977
      2       0.3235      0.00000
      3       0.3506      0.00000
      4       0.5057      0.00000

 k-point    86 :       0.2000    0.2000    0.2000
  band No.  band energies     occupation 
      1      -6.4634      1.00017
      2      -0.0442      0.00000
      3       0.6142      0.00000
      4       0.6142      0.00000

 k-point    87 :       0.2667    0.2000    0.2000
  band No.  band energies     occupation 
      1      -6.4634      1.00009
      2      -0.0059      0.00000
      3       0.5261      0.00000
      4       0.6465      0.00000

 k-point    88 :       0.3333    0.2000    0.2000
  band No.  band energies     occupation 
      1      -6.4634      1.00002
      2       0.0429      0.00000
      3       0.4304      0.00000
      4       0.6830      0.00000

 k-point    89 :       0.4000    0.2000    0.2000
  band No.  band energies     occupation 
      1      -6.4634      0.99999
      2       0.1020      0.00000
      3       0.3373      0.00000
      4       0.7176      0.00000

 k-point    90 :       0.4667    0.2000    0.2000
  band No.  band energies     occupation 
      1      -6.4634      0.99989
      2       0.1704      0.00000
      3       0.2512      0.00000
      4       0.7399      0.00000

 k-point    91 :       0.2667    0.2667    0.2000
  band No.  band energies     occupation 
      1      -6.4634      1.00004
      2       0.0321      0.00000
      3       0.5214      0.00000
      4       0.6070      0.00000

 k-point    92 :       0.3333    0.2667    0.2000
  band No.  band energies     occupation 
      1      -6.4634      0.99992
      2       0.0805      0.00000
      3       0.4523      0.00000
      4       0.6246      0.00000

 k-point    93 :       0.4000    0.2667    0.2000
  band No.  band energies     occupation 
      1      -6.4634      0.99986
      2       0.1390      0.00000
      3       0.3668      0.00000
      4       0.6581      0.00000

 k-point    94 :       0.4667    0.2667    0.2000
  band No.  band energies     occupation 
      1      -6.4634      0.99983
      2       0.2067      0.00000
      3       0.2839      0.00000
      4       0.6825      0.00000

 k-point    95 :       0.3333    0.3333    0.2000
  band No.  band energies     occupation 
      1      -6.4634      0.99989
      2       0.1282      0.00000
      3       0.4497      0.00000
      4       0.5828      0.00000

 k-point    96 :       0.4000    0.3333    0.2000
  band No.  band energies     occupation 
      1      -6.4634      0.99980
      2       0.1854      0.00000
      3       0.3957      0.00000
      4       0.5928      0.00000

 k-point    97 :       0.4667    0.3333    0.2000
  band No.  band energies     occupation 
      1      -6.4634      0.99972
      2       0.2509      0.00000
      3       0.3228      0.00000
      4       0.6154      0.00000

 k-point    98 :       0.4000    0.4000    0.2000
  band No.  band energies     occupation 
      1      -6.4634      0.99972
      2       0.2400      0.00000
      3       0.4011      0.00000
      4       0.5520      0.00000

 k-point    99 :       0.4667    0.4000    0.2000
  band No.  band energies     occupation 
      1      -6.4634      0.99970
      2       0.3005      0.00000
      3       0.3609      0.00000
      4       0.5521      0.00000

 k-point   100 :       0.4667    0.4667    0.2000
  band No.  band energies     occupation 
      1      -6.4634      0.99970
      2       0.3489      0.00000
      3       0.3767      0.00000
      4       0.5104      0.00000

 k-point   101 :       0.2667    0.2667    0.2667
  band No.  band energies     occupation 
      1      -6.4634      0.99989
      2       0.0698      0.00000
      3       0.5547      0.00000
      4       0.5547      0.00000

 k-point   102 :       0.3333    0.2667    0.2667
  band No.  band energies     occupation 
      1      -6.4634      0.99985
      2       0.1178      0.00000
      3       0.4795      0.00000
      4       0.5927      0.00000

 k-point   103 :       0.4000    0.2667    0.2667
  band No.  band energies     occupation 
      1      -6.4634      0.99974
      2       0.1756      0.00000
      3       0.3973      0.00000
      4       0.6290      0.00000

 k-point   104 :       0.4667    0.2667    0.2667
  band No.  band energies     occupation 
      1      -6.4634      0.99970
      2       0.2423      0.00000
      3       0.3170      0.00000
      4       0.6527      0.00000

 k-point   105 :       0.3333    0.3333    0.2667
  band No.  band energies     occupation 
      1      -6.4634      0.99972
      2       0.1650      0.00000
      3       0.4836      0.00000
      4       0.5642      0.00000

 k-point   106 :       0.4000    0.3333    0.2667
  band No.  band energies     occupation 
      1      -6.4634      0.99971
      2       0.2214      0.00000
      3       0.4280      0.00000
      4       0.5836      0.00000

 k-point   107 :       0.4667    0.3333    0.2667
  band No.  band energies     occupation 
      1      -6.4634      0.99964
      2       0.2858      0.00000
      3       0.3563      0.00000
      4       0.6064      0.00000

 k-point   108 :       0.4000    0.4000    0.2667
  band No.  band energies     occupation 
      1      -6.4634      0.99964
      2       0.2752      0.00000
      3       0.4354      0.00000
      4       0.5510      0.00000

 k-point   109 :       0.4667    0.4000    0.2667
  band No.  band energies     occupation 
      1      -6.4633      0.99961
      2       0.3345      0.00000
      3       0.3947      0.00000
      4       0.5542      0.00000

 k-point   110 :       0.4667    0.4667    0.2667
  band No.  band energies     occupation 
      1      -6.4633      0.99955
      2       0.3826      0.00000
      3       0.4110      0.00000
      4       0.5158      0.00000

 k-point   111 :       0.3333    0.3333    0.3333
  band No.  band energies     occupation 
      1      -6.4633      0.99954
      2       0.2114      0.00000
      3       0.5224      0.00000
      4       0.5224      0.00000

 k-point   112 :       0.4000    0.3333    0.3333
  band No.  band energies     occupation 
      1      -6.4633      0.99961
      2       0.2662      0.00000
      3       0.4625      0.00000
      4       0.5598      0.00000

 k-point   113 :       0.4667    0.3333    0.3333
  band No.  band energies     occupation 
      1      -6.4633      0.99958
      2       0.3280      0.00000
      3       0.3956      0.00000
      4       0.5844      0.00000

 k-point   114 :       0.4000    0.4000    0.3333
  band No.  band energies     occupation 
      1      -6.4633      0.99952
      2       0.3184      0.00000
      3       0.4747      0.00000
      4       0.5397      0.00000

 k-point   115 :       0.4667    0.4000    0.3333
  band No.  band energies     occupation 
      1      -6.4633      0.99949
      2       0.3751      0.00000
      3       0.4338      0.00000
      4       0.5507      0.00000

 k-point   116 :       0.4667    0.4667    0.3333
  band No.  band energies     occupation 
      1      -6.4633      0.99949
      2       0.4218      0.00000
      3       0.4506      0.00000
      4       0.5204      0.00000

 k-point   117 :       0.4000    0.4000    0.4000
  band No.  band energies     occupation 
      1      -6.4633      0.99949
      2       0.3676      0.00000
      3       0.5127      0.00000
      4       0.5127      0.00000

 k-point   118 :       0.4667    0.4000    0.4000
  band No.  band energies     occupation 
      1      -6.4633      0.99945
      2       0.4191      0.00000
      3       0.4715      0.00000
      4       0.5379      0.00000

 k-point   119 :       0.4667    0.4667    0.4000
  band No.  band energies     occupation 
      1      -6.4633      0.99945
      2       0.4614      0.00000
      3       0.4889      0.00000
      4       0.5213      0.00000

 k-point   120 :       0.4667    0.4667    0.4667
  band No.  band energies     occupation 
      1      -6.4633      0.99937
      2       0.4941      0.00000
      3       0.5143      0.00000
      4       0.5143      0.00000


--------------------------------------------------------------------------------------------------------


 soft charge-density along one line, spin component           1
         0         1         2         3         4         5         6         7         8         9
 total charge-density along one line

 pseudopotential strength for first ion, spin component:           1
 -2.366  -4.080  -0.000   0.000   0.000
 -4.080  -6.949  -0.000   0.000   0.000
 -0.000  -0.000  -0.347   0.000  -0.000
  0.000   0.000   0.000  -0.347  -0.000
  0.000   0.000  -0.000  -0.000  -0.347
 total augmentation occupancy for first ion, spin component:           1
  1.034  -0.010   0.000   0.000   0.000
 -0.010   0.000   0.000   0.000   0.000
  0.000   0.000   0.000   0.000   0.000
  0.000   0.000   0.000   0.000   0.000
  0.000   0.000   0.000   0.000   0.000


------------------------ aborting loop because EDIFF is reached ----------------------------------------


    CHARGE:  cpu time    0.3342: real time    0.3352
    FORLOC:  cpu time    0.0224: real time    0.0224
    FORNL :  cpu time    0.5416: real time    0.5423
    STRESS:  cpu time    8.6770: real time    8.6894
    FORHAR:  cpu time    0.1864: real time    0.1868
    MIXING:  cpu time    0.0268: real time    0.0268
    OFIELD:  cpu time    0.0000: real time    0.0000

  FORCE on cell =-STRESS in cart. coord.  units (eV):
  Direction    XX          YY          ZZ          XY          YZ          ZX
  --------------------------------------------------------------------------------------
  Alpha Z     0.00244     0.00244     0.00244
  Ewald      -0.68094    -0.68094    -0.68094     0.00000     0.00000     0.00000
  Hartree     1.95418     1.95418     1.95418    -0.00000    -0.00000    -0.00000
  E(xc)      -2.16691    -2.16691    -2.16691    -0.00000     0.00000     0.00000
  Local      -4.94835    -4.94835    -4.94835    -0.00000     0.00000     0.00000
  n-local    -1.67500    -1.67501    -1.67501    -0.00000     0.00001     0.00000
  augment     0.09025     0.09025     0.09025     0.00000     0.00000     0.00000
  Kinetic     7.41343     7.41313     7.41283    -0.00000     0.00000     0.00000
  Fock        0.00000     0.00000     0.00000     0.00000     0.00000     0.00000
  -------------------------------------------------------------------------------------
  Total      -0.01120    -0.01120    -0.01120    -0.00000    -0.00000     0.00000
  in kB      -0.01794    -0.01794    -0.01794    -0.00000    -0.00000     0.00000
  external pressure =       -0.02 kB  Pullay stress =        0.00 kB


 VOLUME and BASIS-vectors are now :
 -----------------------------------------------------------------------------
  energy-cutoff  :      500.00
  volume of cell :     1000.00
      direct lattice vectors                 reciprocal lattice vectors
    10.000000000  0.000000000  0.000000000     0.100000000  0.000000000  0.000000000
     0.000000000 10.000000000  0.000000000     0.000000000  0.100000000  0.000000000
     0.000000000  0.000000000 10.000000000     0.000000000  0.000000000  0.100000000

  length of vectors
    10.000000000 10.000000000 10.000000000     0.100000000  0.100000000  0.100000000


 FORCES acting on ions
    electron-ion (+dipol)            ewald-force                    non-local-force                 convergence-correction
 -----------------------------------------------------------------------------------------------
   0.946E-14 0.203E-13 0.368E-13   -.773E-19 -.335E-18 0.630E-18   -.126E-27 -.151E-27 -.101E-27   -.461E-16 0.887E-15 0.802E-15
 -----------------------------------------------------------------------------------------------
   0.946E-14 0.203E-13 0.368E-13   -.773E-19 -.335E-18 0.630E-18   -.126E-27 -.151E-27 -.101E-27   -.461E-16 0.887E-15 0.802E-15


 POSITION                                       TOTAL-FORCE (eV/Angst)
 -----------------------------------------------------------------------------------
      5.00000      5.00000      5.00000        -0.000000      0.000000     -0.000000
 -----------------------------------------------------------------------------------
    total drift:                                0.000000      0.000000      0.000000


--------------------------------------------------------------------------------------------------------



  FREE ENERGIE OF THE ION-ELECTRON SYSTEM (eV)
  ---------------------------------------------------
  free  energy   TOTEN  =        -0.11289070 eV

  energy  without entropy=       -0.00005279  energy(sigma->0) =       -0.05647175



--------------------------------------------------------------------------------------------------------


    POTLOK:  cpu time    0.6833: real time    0.6848


--------------------------------------------------------------------------------------------------------




--------------------------------------------------------------------------------------------------------


  
 reached required accuracy - stopping structural energy minimisation
 writing wavefunctions
     LOOP+:  cpu time  122.6133: real time  128.4389
    4ORBIT:  cpu time    0.0000: real time    0.0000

 total amount of memory used by VASP MPI-rank0   471931. kBytes
=======================================================================

   base      :      30000. kBytes
   nonl-proj :     122523. kBytes
   fftplans  :      48668. kBytes
   grid      :      75314. kBytes
   one-center:          1. kBytes
   wavefun   :     195425. kBytes

  
  
 General timing and accounting informations for this job:
 ========================================================
  
                  Total CPU time used (sec):      126.163
                            User time (sec):      125.817
                          System time (sec):        0.346
                         Elapsed time (sec):      135.953
  
                   Maximum memory used (kb):      816068.
                   Average memory used (kb):          N/A
  
                          Minor page faults:        64119
                          Major page faults:            4
                 Voluntary context switches:        12205
