<?xml version="1.0" encoding="ISO-8859-1"?>
<modeling>
 <generator>
  <i name="program" type="string">vasp </i>
  <i name="version" type="string">6.2.1  </i>
  <i name="subversion" type="string">16May21 (build Dec 20 2021 17:02:34) complex                          parallel </i>
  <i name="platform" type="string">LinuxGNU </i>
  <i name="date" type="string">2026 04 15 </i>
  <i name="time" type="string">21:41:38 </i>
 </generator>
 <incar>
  <i type="int" name="IBRION">     2</i>
  <i name="EDIFF">      0.00000010</i>
  <i type="int" name="NSW">   100</i>
  <i type="int" name="ISIF">     2</i>
  <i name="ENCUT">    500.00000000</i>
  <i type="int" name="ISMEAR">     0</i>
 </incar>
 <primitive_cell>
  <structure name="primitive_cell" >
   <crystal>
    <varray name="basis" >
     <v>      10.00000000       0.00000000       0.00000000 </v>
     <v>       0.00000000      10.00000000       0.00000000 </v>
     <v>       0.00000000       0.00000000      10.00000000 </v>
    </varray>
    <i name="volume">   1000.00000000 </i>
    <varray name="rec_basis" >
     <v>       0.10000000       0.00000000       0.00000000 </v>
     <v>       0.00000000       0.10000000       0.00000000 </v>
     <v>       0.00000000       0.00000000       0.10000000 </v>
    </varray>
   </crystal>
   <varray name="positions" >
    <v>       0.50000000       0.50000000       0.50000000 </v>
   </varray>
  </structure>
  <varray name="primitive_index" >
   <v type="int" >        1 </v>
  </varray>
 </primitive_cell>
 <kpoints>
  <generation param="Monkhorst-Pack">
   <v type="int" name="divisions">      15       15       15 </v>
   <v name="usershift">      0.00000000       0.00000000       0.00000000 </v>
   <v name="genvec1">      0.06666667       0.00000000       0.00000000 </v>
   <v name="genvec2">      0.00000000       0.06666667       0.00000000 </v>
   <v name="genvec3">      0.00000000       0.00000000       0.06666667 </v>
   <v name="shift">      0.00000000       0.00000000       0.00000000 </v>
  </generation>
  <varray name="kpointlist" >
   <v>       0.00000000       0.00000000       0.00000000 </v>
   <v>       0.06666667       0.00000000       0.00000000 </v>
   <v>       0.13333333       0.00000000       0.00000000 </v>
   <v>       0.20000000       0.00000000       0.00000000 </v>
   <v>       0.26666667       0.00000000       0.00000000 </v>
   <v>       0.33333333       0.00000000       0.00000000 </v>
   <v>       0.40000000       0.00000000       0.00000000 </v>
   <v>       0.46666667       0.00000000       0.00000000 </v>
   <v>       0.06666667       0.06666667       0.00000000 </v>
   <v>       0.13333333       0.06666667       0.00000000 </v>
   <v>       0.20000000       0.06666667       0.00000000 </v>
   <v>       0.26666667       0.06666667       0.00000000 </v>
   <v>       0.33333333       0.06666667       0.00000000 </v>
   <v>       0.40000000       0.06666667       0.00000000 </v>
   <v>       0.46666667       0.06666667       0.00000000 </v>
   <v>       0.13333333       0.13333333       0.00000000 </v>
   <v>       0.20000000       0.13333333       0.00000000 </v>
   <v>       0.26666667       0.13333333       0.00000000 </v>
   <v>       0.33333333       0.13333333       0.00000000 </v>
   <v>       0.40000000       0.13333333       0.00000000 </v>
   <v>       0.46666667       0.13333333       0.00000000 </v>
   <v>       0.20000000       0.20000000       0.00000000 </v>
   <v>       0.26666667       0.20000000       0.00000000 </v>
   <v>       0.33333333       0.20000000       0.00000000 </v>
   <v>       0.40000000       0.20000000       0.00000000 </v>
   <v>       0.46666667       0.20000000       0.00000000 </v>
   <v>       0.26666667       0.26666667       0.00000000 </v>
   <v>       0.33333333       0.26666667       0.00000000 </v>
   <v>       0.40000000       0.26666667       0.00000000 </v>
   <v>       0.46666667       0.26666667       0.00000000 </v>
   <v>       0.33333333       0.33333333       0.00000000 </v>
   <v>       0.40000000       0.33333333       0.00000000 </v>
   <v>       0.46666667       0.33333333       0.00000000 </v>
   <v>       0.40000000       0.40000000       0.00000000 </v>
   <v>       0.46666667       0.40000000       0.00000000 </v>
   <v>       0.46666667       0.46666667       0.00000000 </v>
   <v>       0.06666667       0.06666667       0.06666667 </v>
   <v>       0.13333333       0.06666667       0.06666667 </v>
   <v>       0.20000000       0.06666667       0.06666667 </v>
   <v>       0.26666667       0.06666667       0.06666667 </v>
   <v>       0.33333333       0.06666667       0.06666667 </v>
   <v>       0.40000000       0.06666667       0.06666667 </v>
   <v>       0.46666667       0.06666667       0.06666667 </v>
   <v>       0.13333333       0.13333333       0.06666667 </v>
   <v>       0.20000000       0.13333333       0.06666667 </v>
   <v>       0.26666667       0.13333333       0.06666667 </v>
   <v>       0.33333333       0.13333333       0.06666667 </v>
   <v>       0.40000000       0.13333333       0.06666667 </v>
   <v>       0.46666667       0.13333333       0.06666667 </v>
   <v>       0.20000000       0.20000000       0.06666667 </v>
   <v>       0.26666667       0.20000000       0.06666667 </v>
   <v>       0.33333333       0.20000000       0.06666667 </v>
   <v>       0.40000000       0.20000000       0.06666667 </v>
   <v>       0.46666667       0.20000000       0.06666667 </v>
   <v>       0.26666667       0.26666667       0.06666667 </v>
   <v>       0.33333333       0.26666667       0.06666667 </v>
   <v>       0.40000000       0.26666667       0.06666667 </v>
   <v>       0.46666667       0.26666667       0.06666667 </v>
   <v>       0.33333333       0.33333333       0.06666667 </v>
   <v>       0.40000000       0.33333333       0.06666667 </v>
   <v>       0.46666667       0.33333333       0.06666667 </v>
   <v>       0.40000000       0.40000000       0.06666667 </v>
   <v>       0.46666667       0.40000000       0.06666667 </v>
   <v>       0.46666667       0.46666667       0.06666667 </v>
   <v>       0.13333333       0.13333333       0.13333333 </v>
   <v>       0.20000000       0.13333333       0.13333333 </v>
   <v>       0.26666667       0.13333333       0.13333333 </v>
   <v>       0.33333333       0.13333333       0.13333333 </v>
   <v>       0.40000000       0.13333333       0.13333333 </v>
   <v>       0.46666667       0.13333333       0.13333333 </v>
   <v>       0.20000000       0.20000000       0.13333333 </v>
   <v>       0.26666667       0.20000000       0.13333333 </v>
   <v>       0.33333333       0.20000000       0.13333333 </v>
   <v>       0.40000000       0.20000000       0.13333333 </v>
   <v>       0.46666667       0.20000000       0.13333333 </v>
   <v>       0.26666667       0.26666667       0.13333333 </v>
   <v>       0.33333333       0.26666667       0.13333333 </v>
   <v>       0.40000000       0.26666667       0.13333333 </v>
   <v>       0.46666667       0.26666667       0.13333333 </v>
   <v>       0.33333333       0.33333333       0.13333333 </v>
   <v>       0.40000000       0.33333333       0.13333333 </v>
   <v>       0.46666667       0.33333333       0.13333333 </v>
   <v>       0.40000000       0.40000000       0.13333333 </v>
   <v>       0.46666667       0.40000000       0.13333333 </v>
   <v>       0.46666667       0.46666667       0.13333333 </v>
   <v>       0.20000000       0.20000000       0.20000000 </v>
   <v>       0.26666667       0.20000000       0.20000000 </v>
   <v>       0.33333333       0.20000000       0.20000000 </v>
   <v>       0.40000000       0.20000000       0.20000000 </v>
   <v>       0.46666667       0.20000000       0.20000000 </v>
   <v>       0.26666667       0.26666667       0.20000000 </v>
   <v>       0.33333333       0.26666667       0.20000000 </v>
   <v>       0.40000000       0.26666667       0.20000000 </v>
   <v>       0.46666667       0.26666667       0.20000000 </v>
   <v>       0.33333333       0.33333333       0.20000000 </v>
   <v>       0.40000000       0.33333333       0.20000000 </v>
   <v>       0.46666667       0.33333333       0.20000000 </v>
   <v>       0.40000000       0.40000000       0.20000000 </v>
   <v>       0.46666667       0.40000000       0.20000000 </v>
   <v>       0.46666667       0.46666667       0.20000000 </v>
   <v>       0.26666667       0.26666667       0.26666667 </v>
   <v>       0.33333333       0.26666667       0.26666667 </v>
   <v>       0.40000000       0.26666667       0.26666667 </v>
   <v>       0.46666667       0.26666667       0.26666667 </v>
   <v>       0.33333333       0.33333333       0.26666667 </v>
   <v>       0.40000000       0.33333333       0.26666667 </v>
   <v>       0.46666667       0.33333333       0.26666667 </v>
   <v>       0.40000000       0.40000000       0.26666667 </v>
   <v>       0.46666667       0.40000000       0.26666667 </v>
   <v>       0.46666667       0.46666667       0.26666667 </v>
   <v>       0.33333333       0.33333333       0.33333333 </v>
   <v>       0.40000000       0.33333333       0.33333333 </v>
   <v>       0.46666667       0.33333333       0.33333333 </v>
   <v>       0.40000000       0.40000000       0.33333333 </v>
   <v>       0.46666667       0.40000000       0.33333333 </v>
   <v>       0.46666667       0.46666667       0.33333333 </v>
   <v>       0.40000000       0.40000000       0.40000000 </v>
   <v>       0.46666667       0.40000000       0.40000000 </v>
   <v>       0.46666667       0.46666667       0.40000000 </v>
   <v>       0.46666667       0.46666667       0.46666667 </v>
  </varray>
  <varray name="weights" >
   <v>       0.00029630 </v>
   <v>       0.00177778 </v>
   <v>       0.00177778 </v>
   <v>       0.00177778 </v>
   <v>       0.00177778 </v>
   <v>       0.00177778 </v>
   <v>       0.00177778 </v>
   <v>       0.00177778 </v>
   <v>       0.00355556 </v>
   <v>       0.00711111 </v>
   <v>       0.00711111 </v>
   <v>       0.00711111 </v>
   <v>       0.00711111 </v>
   <v>       0.00711111 </v>
   <v>       0.00711111 </v>
   <v>       0.00355556 </v>
   <v>       0.00711111 </v>
   <v>       0.00711111 </v>
   <v>       0.00711111 </v>
   <v>       0.00711111 </v>
   <v>       0.00711111 </v>
   <v>       0.00355556 </v>
   <v>       0.00711111 </v>
   <v>       0.00711111 </v>
   <v>       0.00711111 </v>
   <v>       0.00711111 </v>
   <v>       0.00355556 </v>
   <v>       0.00711111 </v>
   <v>       0.00711111 </v>
   <v>       0.00711111 </v>
   <v>       0.00355556 </v>
   <v>       0.00711111 </v>
   <v>       0.00711111 </v>
   <v>       0.00355556 </v>
   <v>       0.00711111 </v>
   <v>       0.00355556 </v>
   <v>       0.00237037 </v>
   <v>       0.00711111 </v>
   <v>       0.00711111 </v>
   <v>       0.00711111 </v>
   <v>       0.00711111 </v>
   <v>       0.00711111 </v>
   <v>       0.00711111 </v>
   <v>       0.00711111 </v>
   <v>       0.01422222 </v>
   <v>       0.01422222 </v>
   <v>       0.01422222 </v>
   <v>       0.01422222 </v>
   <v>       0.01422222 </v>
   <v>       0.00711111 </v>
   <v>       0.01422222 </v>
   <v>       0.01422222 </v>
   <v>       0.01422222 </v>
   <v>       0.01422222 </v>
   <v>       0.00711111 </v>
   <v>       0.01422222 </v>
   <v>       0.01422222 </v>
   <v>       0.01422222 </v>
   <v>       0.00711111 </v>
   <v>       0.01422222 </v>
   <v>       0.01422222 </v>
   <v>       0.00711111 </v>
   <v>       0.01422222 </v>
   <v>       0.00711111 </v>
   <v>       0.00237037 </v>
   <v>       0.00711111 </v>
   <v>       0.00711111 </v>
   <v>       0.00711111 </v>
   <v>       0.00711111 </v>
   <v>       0.00711111 </v>
   <v>       0.00711111 </v>
   <v>       0.01422222 </v>
   <v>       0.01422222 </v>
   <v>       0.01422222 </v>
   <v>       0.01422222 </v>
   <v>       0.00711111 </v>
   <v>       0.01422222 </v>
   <v>       0.01422222 </v>
   <v>       0.01422222 </v>
   <v>       0.00711111 </v>
   <v>       0.01422222 </v>
   <v>       0.01422222 </v>
   <v>       0.00711111 </v>
   <v>       0.01422222 </v>
   <v>       0.00711111 </v>
   <v>       0.00237037 </v>
   <v>       0.00711111 </v>
   <v>       0.00711111 </v>
   <v>       0.00711111 </v>
   <v>       0.00711111 </v>
   <v>       0.00711111 </v>
   <v>       0.01422222 </v>
   <v>       0.01422222 </v>
   <v>       0.01422222 </v>
   <v>       0.00711111 </v>
   <v>       0.01422222 </v>
   <v>       0.01422222 </v>
   <v>       0.00711111 </v>
   <v>       0.01422222 </v>
   <v>       0.00711111 </v>
   <v>       0.00237037 </v>
   <v>       0.00711111 </v>
   <v>       0.00711111 </v>
   <v>       0.00711111 </v>
   <v>       0.00711111 </v>
   <v>       0.01422222 </v>
   <v>       0.01422222 </v>
   <v>       0.00711111 </v>
   <v>       0.01422222 </v>
   <v>       0.00711111 </v>
   <v>       0.00237037 </v>
   <v>       0.00711111 </v>
   <v>       0.00711111 </v>
   <v>       0.00711111 </v>
   <v>       0.01422222 </v>
   <v>       0.00711111 </v>
   <v>       0.00237037 </v>
   <v>       0.00711111 </v>
   <v>       0.00711111 </v>
   <v>       0.00237037 </v>
  </varray>
 </kpoints>
 <parameters>
  <separator name="general" >
   <i type="string" name="SYSTEM">unknown system</i>
   <i type="logical" name="LCOMPAT"> F  </i>
  </separator>
  <separator name="electronic" >
   <i type="string" name="PREC">normal</i>
   <i name="ENMAX">    500.00000000</i>
   <i name="ENAUG">    400.00000000</i>
   <i name="EDIFF">      0.00000010</i>
   <i type="int" name="IALGO">    38</i>
   <i type="int" name="IWAVPR">    11</i>
   <i type="int" name="NBANDS">     4</i>
   <i type="int" name="NBANDSLOW">    -1</i>
   <i type="int" name="NBANDSHIGH">    -1</i>
   <i name="NELECT">      1.00000000</i>
   <i type="int" name="TURBO">     0</i>
   <i type="int" name="IRESTART">     0</i>
   <i type="int" name="NREBOOT">     0</i>
   <i type="int" name="NMIN">     0</i>
   <i name="EREF">      0.00000000</i>
   <separator name="electronic smearing" >
    <i type="int" name="ISMEAR">     0</i>
    <i name="SIGMA">      0.20000000</i>
    <i name="KSPACING">      0.50000000</i>
    <i type="logical" name="KGAMMA"> T  </i>
    <i type="logical" name="KBLOWUP"> T  </i>
   </separator>
   <separator name="electronic projectors" >
    <i type="logical" name="LREAL"> F  </i>
    <v name="ROPT">      0.00000000</v>
    <i type="int" name="LMAXPAW">  -100</i>
    <i type="int" name="LMAXMIX">     2</i>
    <i type="logical" name="NLSPLINE"> F  </i>
   </separator>
   <separator name="electronic startup" >
    <i type="int" name="ISTART">     0</i>
    <i type="int" name="ICHARG">     2</i>
    <i type="int" name="INIWAV">     1</i>
   </separator>
   <separator name="electronic spin" >
    <i type="int" name="ISPIN">     1</i>
    <i type="logical" name="LNONCOLLINEAR"> F  </i>
    <v name="MAGMOM">      1.00000000</v>
    <i name="NUPDOWN">     -1.00000000</i>
    <i type="logical" name="LSORBIT"> F  </i>
    <v name="SAXIS">      0.00000000      0.00000000      1.00000000</v>
    <i type="logical" name="LSPIRAL"> F  </i>
    <v name="QSPIRAL">      0.00000000      0.00000000      0.00000000</v>
    <i type="logical" name="LZEROZ"> F  </i>
   </separator>
   <separator name="electronic exchange-correlation" >
    <i type="logical" name="LASPH"> F  </i>
    <i type="logical" name="LMETAGGA"> F  </i>
   </separator>
   <separator name="electronic convergence" >
    <i type="int" name="NELM">    60</i>
    <i type="int" name="NELMDL">     0</i>
    <i type="int" name="NELMIN">     2</i>
    <i name="ENINI">    500.00000000</i>
    <separator name="electronic convergence detail" >
     <i type="logical" name="LDIAG"> T  </i>
     <i type="logical" name="LSUBROT"> F  </i>
     <i name="WEIMIN">      0.00100000</i>
     <i name="EBREAK">      0.00000001</i>
     <i name="DEPER">      0.30000000</i>
     <i type="int" name="NRMM">     4</i>
     <i name="TIME">      0.40000000</i>
    </separator>
   </separator>
   <separator name="electronic mixer" >
    <i name="AMIX">      0.40000000</i>
    <i name="BMIX">      1.00000000</i>
    <i name="AMIN">      0.10000000</i>
    <i name="AMIX_MAG">      1.60000000</i>
    <i name="BMIX_MAG">      1.00000000</i>
    <separator name="electronic mixer details" >
     <i type="int" name="IMIX">     4</i>
     <i type="logical" name="MIXFIRST"> F  </i>
     <i type="int" name="MAXMIX">   -45</i>
     <i name="WC">    100.00000000</i>
     <i type="int" name="INIMIX">     1</i>
     <i type="int" name="MIXPRE">     1</i>
     <i type="int" name="MREMOVE">     5</i>
    </separator>
   </separator>
   <separator name="electronic dipolcorrection" >
    <i type="logical" name="LDIPOL"> F  </i>
    <i type="logical" name="LMONO"> F  </i>
    <i type="int" name="IDIPOL">     0</i>
    <i name="EPSILON">      1.00000000</i>
    <v name="DIPOL">   -100.00000000   -100.00000000   -100.00000000</v>
    <i name="EFIELD">      0.00000000</i>
   </separator>
  </separator>
  <separator name="grids" >
   <i type="int" name="NGX">    56</i>
   <i type="int" name="NGY">    56</i>
   <i type="int" name="NGZ">    56</i>
   <i type="int" name="NGXF">   112</i>
   <i type="int" name="NGYF">   112</i>
   <i type="int" name="NGZF">   112</i>
   <i type="logical" name="ADDGRID"> F  </i>
  </separator>
  <separator name="ionic" >
   <i type="int" name="NSW">   100</i>
   <i type="int" name="IBRION">     2</i>
   <i type="int" name="MDALGO">     0</i>
   <i type="int" name="ISIF">     2</i>
   <i name="PSTRESS">      0.00000000</i>
   <i name="EDIFFG">      0.00000100</i>
   <i type="int" name="NFREE">     1</i>
   <i name="POTIM">      0.50000000</i>
   <i name="SMASS">     -3.00000000</i>
   <i name="SCALEE">      1.00000000</i>
  </separator>
  <separator name="ionic md" >
   <i name="TEBEG">      0.00010000</i>
   <i name="TEEND">      0.00010000</i>
   <i type="int" name="NBLOCK">     1</i>
   <i type="int" name="KBLOCK">   100</i>
   <i type="int" name="NPACO">   256</i>
   <i name="APACO">     16.00000000</i>
  </separator>
  <separator name="symmetry" >
   <i type="int" name="ISYM">     2</i>
   <i name="SYMPREC">      0.00001000</i>
  </separator>
  <separator name="dos" >
   <i type="int" name="LORBIT">     0</i>
   <v name="RWIGS">     -1.00000000</v>
   <i type="int" name="NEDOS">   301</i>
   <i name="EMIN">     10.00000000</i>
   <i name="EMAX">    -10.00000000</i>
   <i name="EFERMI">      0.00000000</i>
  </separator>
  <separator name="writing" >
   <i type="int" name="NWRITE">     2</i>
   <i type="logical" name="LWAVE"> T  </i>
   <i type="logical" name="LDOWNSAMPLE"> F  </i>
   <i type="logical" name="LCHARG"> T  </i>
   <i type="logical" name="LPARD"> F  </i>
   <i type="logical" name="LVTOT"> F  </i>
   <i type="logical" name="LVHAR"> F  </i>
   <i type="logical" name="LELF"> F  </i>
   <i type="logical" name="LOPTICS"> F  </i>
   <v name="STM">      0.00000000      0.00000000      0.00000000      0.00000000      0.00000000      0.00000000      0.00000000</v>
  </separator>
  <separator name="performance" >
   <i type="int" name="NPAR">     1</i>
   <i type="int" name="NSIM">     4</i>
   <i type="int" name="NBLK">    -1</i>
   <i type="logical" name="LPLANE"> T  </i>
   <i type="logical" name="LSCALAPACK"> T  </i>
   <i type="logical" name="LSCAAWARE"> F  </i>
   <i type="logical" name="LSCALU"> F  </i>
   <i type="logical" name="LASYNC"> F  </i>
   <i type="logical" name="LORBITALREAL"> F  </i>
  </separator>
  <separator name="miscellaneous" >
   <i type="int" name="IDIOT">     3</i>
   <i type="int" name="PHON_NSTRUCT">    -1</i>
   <i type="logical" name="LMUSIC"> F  </i>
   <v name="POMASS">      1.00000000</v>
   <v name="DARWINR">      0.00000000</v>
   <v name="DARWINV">      1.00000000</v>
   <i type="logical" name="LCORR"> T  </i>
  </separator>
  <i type="logical" name="GGA_COMPAT"> T  </i>
  <i type="logical" name="LBERRY"> F  </i>
  <i type="int" name="ICORELEVEL">     0</i>
  <i type="logical" name="LDAU"> F  </i>
  <i type="int" name="I_CONSTRAINED_M">     0</i>
  <separator name="electronic exchange-correlation" >
   <i type="string" name="GGA">--</i>
   <i type="int" name="VOSKOWN">     0</i>
   <i type="logical" name="LHFCALC"> F  </i>
   <i type="string" name="PRECFOCK"></i>
   <i type="logical" name="LSYMGRAD"> F  </i>
   <i type="logical" name="LHFONE"> F  </i>
   <i type="logical" name="LRHFCALC"> F  </i>
   <i type="logical" name="LTHOMAS"> F  </i>
   <i type="logical" name="LMODELHF"> F  </i>
   <i type="logical" name="LFOCKACE"> F  </i>
   <i name="ENCUT4O">     -1.00000000</i>
   <i type="int" name="EXXOEP">     0</i>
   <i type="int" name="FOURORBIT">     0</i>
   <i name="AEXX">      0.00000000</i>
   <i name="HFALPHA">      0.00000000</i>
   <i name="MCALPHA">      0.00000000</i>
   <i name="ALDAX">      1.00000000</i>
   <i name="AGGAX">      1.00000000</i>
   <i name="ALDAC">      1.00000000</i>
   <i name="AGGAC">      1.00000000</i>
   <i type="int" name="NKREDX">     1</i>
   <i type="int" name="NKREDY">     1</i>
   <i type="int" name="NKREDZ">     1</i>
   <i type="logical" name="SHIFTRED"> F  </i>
   <i type="logical" name="ODDONLY"> F  </i>
   <i type="logical" name="EVENONLY"> F  </i>
   <i type="int" name="LMAXFOCK">     0</i>
   <i type="int" name="NMAXFOCKAE">     0</i>
   <i type="logical" name="LFOCKAEDFT"> F  </i>
   <i name="HFSCREEN">      0.00000000</i>
   <i name="HFSCREENC">      0.00000000</i>
   <i type="int" name="NBANDSGWLOW">     0</i>
  </separator>
  <separator name="vdW DFT" >
   <i type="logical" name="LUSE_VDW"> F  </i>
   <i name="Zab_VDW">     -0.84910000</i>
   <i name="PARAM1">      0.12340000</i>
   <i name="PARAM2">      1.00000000</i>
   <i name="PARAM3">      0.00000000</i>
  </separator>
  <separator name="model GW" >
   <i type="int" name="MODEL_GW">     0</i>
   <i name="MODEL_EPS0">    600.00000000</i>
   <i name="MODEL_ALPHA">      1.00000000</i>
  </separator>
  <separator name="linear response parameters" >
   <i type="logical" name="LEPSILON"> F  </i>
   <i type="logical" name="LRPA"> F  </i>
   <i type="logical" name="LNABLA"> F  </i>
   <i type="logical" name="LVEL"> F  </i>
   <i type="int" name="KINTER">     0</i>
   <i name="CSHIFT">      0.10000000</i>
   <i name="OMEGAMAX">     -1.00000000</i>
   <i name="DEG_THRESHOLD">      0.00200000</i>
   <i name="RTIME">     -0.10000000</i>
   <i name="WPLASMAI">      0.00000000</i>
   <v name="DFIELD">      0.00000000      0.00000000      0.00000000</v>
   <v name="WPLASMA">      0.00000000      0.00000000      0.00000000      0.00000000      0.00000000      0.00000000      0.00000000      0.00000000      0.00000000</v>
  </separator>
  <separator name="orbital magnetization" >
   <i type="logical" name="NUCIND"> F  </i>
   <v name="MAGPOS">      0.00000000      0.00000000      0.00000000</v>
   <i type="logical" name="LNICSALL"> T  </i>
   <i type="logical" name="ORBITALMAG"> F  </i>
   <i type="logical" name="LMAGBLOCH"> F  </i>
   <i type="logical" name="LCHIMAG"> F  </i>
   <i type="logical" name="LGAUGE"> T  </i>
   <i type="int" name="MAGATOM">     0</i>
   <v name="MAGDIPOL">      0.00000000      0.00000000      0.00000000</v>
   <v name="AVECCONST">      0.00000000      0.00000000      0.00000000</v>
  </separator>
  <separator name="response functions" >
   <i type="logical" name="LFINITE_TEMPERATURE"> F  </i>
   <i type="logical" name="LADDER"> F  </i>
   <i type="logical" name="LRPAFORCE"> F  </i>
   <i type="logical" name="LFXC"> F  </i>
   <i type="logical" name="LHARTREE"> T  </i>
   <i type="int" name="IBSE">     0</i>
   <v type="int" name="KPOINT">    -1     0     0     0</v>
   <i type="logical" name="LTCTC"> F  </i>
   <i type="logical" name="LTCTE"> F  </i>
   <i type="logical" name="LTETE"> F  </i>
   <i type="logical" name="LTRIPLET"> F  </i>
   <i type="logical" name="LFXCEPS"> F  </i>
   <i type="logical" name="LFXHEG"> F  </i>
   <i type="int" name="NATURALO">     2</i>
   <i type="logical" name="LHOLEGF"> F  </i>
   <i type="logical" name="L2ORDER"> F  </i>
   <i type="logical" name="LDMP1"> F  </i>
   <i type="logical" name="LMP2LT"> F  </i>
   <i type="logical" name="LSMP2LT"> F  </i>
   <i type="logical" name="LGWLF"> F  </i>
   <i name="ENCUTGW">     -2.00000000</i>
   <i name="ENCUTGWSOFT">     -2.00000000</i>
   <i name="ENCUTLF">     -1.00000000</i>
   <i type="logical" name="LESF_SPLINES"> F  </i>
   <i type="int" name="LMAXMP2">    -1</i>
   <i name="SCISSOR">      0.00000000</i>
   <i type="int" name="NOMEGA">     0</i>
   <i type="int" name="NOMEGAR">     0</i>
   <i type="int" name="NBANDSGW">    -1</i>
   <i type="int" name="NBANDSO">    -1</i>
   <i type="int" name="NBANDSV">    -1</i>
   <i type="int" name="NELM">     1</i>
   <i type="int" name="NELMHF">     1</i>
   <i type="int" name="DIM">     3</i>
   <i type="int" name="IESPILON">     4</i>
   <i type="int" name="ANTIRES">     0</i>
   <i name="OMEGAMAX">    -30.00000000</i>
   <i name="OMEGAMIN">    -30.00000000</i>
   <i name="OMEGATL">   -200.00000000</i>
   <i type="int" name="OMEGAGRID">     0</i>
   <i name="CSHIFT">     -0.10000000</i>
   <i type="logical" name="LSELFENERGY"> F  </i>
   <i type="logical" name="LSPECTRAL"> F  </i>
   <i type="logical" name="LSPECTRALGW"> F  </i>
   <i type="logical" name="LSINGLES"> F  </i>
   <i type="logical" name="LFERMIGW"> F  </i>
   <i type="logical" name="ODDONLYGW"> F  </i>
   <i type="logical" name="EVENONLYGW"> F  </i>
   <i type="int" name="NKREDLFX">     1</i>
   <i type="int" name="NKREDLFY">     1</i>
   <i type="int" name="NKREDLFZ">     1</i>
   <i type="int" name="MAXMEM">  2800</i>
   <i type="int" name="TELESCOPE">     0</i>
   <i type="int" name="NTAUPAR">    -1</i>
   <i type="int" name="NOMEGAPAR">    -1</i>
   <i name="DAMP_NEWTON">      0.80000001</i>
   <i name="LAMBDA">      1.00000000</i>
  </separator>
  <separator name="External order field" >
   <i name="OFIELD_KAPPA">      0.00000000</i>
   <v name="OFIELD_K">      0.00000000      0.00000000      0.00000000</v>
   <i name="OFIELD_Q6_NEAR">      0.00000000</i>
   <i name="OFIELD_Q6_FAR">      0.00000000</i>
   <i name="OFIELD_A">      0.00000000</i>
  </separator>
 </parameters>
 <atominfo>
  <atoms>       1 </atoms>
  <types>       1 </types>
  <array name="atoms" >
   <dimension dim="1">ion</dimension>
   <field type="string">element</field>
   <field type="int">atomtype</field>
   <set>
    <rc><c>H </c><c>   1</c></rc>
   </set>
  </array>
  <array name="atomtypes" >
   <dimension dim="1">type</dimension>
   <field type="int">atomspertype</field>
   <field type="string">element</field>
   <field>mass</field>
   <field>valence</field>
   <field type="string">pseudopotential</field>
   <set>
    <rc><c>   1</c><c>H </c><c>      1.00000000</c><c>      1.00000000</c><c>  PAW_PBE H 15Jun2001                   </c></rc>
   </set>
  </array>
 </atominfo>
 <structure name="initialpos" >
  <crystal>
   <varray name="basis" >
    <v>      10.00000000       0.00000000       0.00000000 </v>
    <v>       0.00000000      10.00000000       0.00000000 </v>
    <v>       0.00000000       0.00000000      10.00000000 </v>
   </varray>
   <i name="volume">   1000.00000000 </i>
   <varray name="rec_basis" >
    <v>       0.10000000       0.00000000       0.00000000 </v>
    <v>       0.00000000       0.10000000       0.00000000 </v>
    <v>       0.00000000       0.00000000       0.10000000 </v>
   </varray>
  </crystal>
  <varray name="positions" >
   <v>       0.50000000       0.50000000       0.50000000 </v>
  </varray>
 </structure>
 <calculation>
  <scstep>
   <time name="dav">    9.95    9.99</time>
   <time name="total">   10.63   10.67</time>
   <energy>
    <i name="alphaZ">      0.00243617 </i>
    <i name="ewald">     -2.04282400 </i>
    <i name="hartreedc">     -5.86380841 </i>
    <i name="XCdc">      1.88895337 </i>
    <i name="pawpsdc">      2.13402744 </i>
    <i name="pawaedc">     -2.14290522 </i>
    <i name="eentropy">     -0.01094419 </i>
    <i name="bandstr">     -3.51144828 </i>
    <i name="atom">     12.48642988 </i>
    <i name="e_fr_energy">      2.93991675 </i>
    <i name="e_wo_entrp">      2.95086094 </i>
    <i name="e_0_energy">      2.94538884 </i>
   </energy>
  </scstep>
  <scstep>
   <time name="dav">   11.49   11.53</time>
   <time name="total">   11.49   11.53</time>
   <energy>
    <i name="e_fr_energy">      0.18263077 </i>
    <i name="e_wo_entrp">      0.20689981 </i>
    <i name="e_0_energy">      0.19476529 </i>
   </energy>
  </scstep>
  <scstep>
   <time name="dav">   11.67   11.71</time>
   <time name="total">   11.67   11.71</time>
   <energy>
    <i name="e_fr_energy">     -0.10194032 </i>
    <i name="e_wo_entrp">      0.01039060 </i>
    <i name="e_0_energy">     -0.04577486 </i>
   </energy>
  </scstep>
  <scstep>
   <time name="dav">   13.40   13.45</time>
   <time name="total">   12.92   12.96</time>
   <energy>
    <i name="e_fr_energy">     -0.11279937 </i>
    <i name="e_wo_entrp">      0.00003852 </i>
    <i name="e_0_energy">     -0.05638043 </i>
   </energy>
  </scstep>
  <scstep>
   <time name="dav">   12.27   12.31</time>
   <time name="total">   12.63   12.68</time>
   <energy>
    <i name="e_fr_energy">     -0.11284328 </i>
    <i name="e_wo_entrp">     -0.00000536 </i>
    <i name="e_0_energy">     -0.05642432 </i>
   </energy>
  </scstep>
  <scstep>
   <time name="dav">   11.74   11.78</time>
   <time name="total">   12.79   12.83</time>
   <energy>
    <i name="e_fr_energy">     -0.11287679 </i>
    <i name="e_wo_entrp">     -0.00003888 </i>
    <i name="e_0_energy">     -0.05645783 </i>
   </energy>
  </scstep>
  <scstep>
   <time name="dav">   10.69   10.72</time>
   <time name="total">   11.73   11.76</time>
   <energy>
    <i name="e_fr_energy">     -0.11289004 </i>
    <i name="e_wo_entrp">     -0.00005213 </i>
    <i name="e_0_energy">     -0.05647109 </i>
   </energy>
  </scstep>
  <scstep>
   <time name="dav">   13.51   13.55</time>
   <time name="total">   14.55   14.59</time>
   <energy>
    <i name="e_fr_energy">     -0.11289068 </i>
    <i name="e_wo_entrp">     -0.00005277 </i>
    <i name="e_0_energy">     -0.05647173 </i>
   </energy>
  </scstep>
  <scstep>
   <time name="dav">   11.61   11.64</time>
   <time name="total">   12.31   12.35</time>
   <energy>
    <i name="alphaZ">      0.00243617 </i>
    <i name="ewald">     -2.04282400 </i>
    <i name="hartreedc">     -5.86256997 </i>
    <i name="XCdc">      1.88872711 </i>
    <i name="pawpsdc">      2.16907174 </i>
    <i name="pawaedc">     -2.17790927 </i>
    <i name="eentropy">     -0.11283791 </i>
    <i name="bandstr">     -6.46341445 </i>
    <i name="atom">     12.48642988 </i>
    <i name="e_fr_energy">     -0.11289070 </i>
    <i name="e_wo_entrp">     -0.00005279 </i>
    <i name="e_0_energy">     -0.05647175 </i>
   </energy>
  </scstep>
  <structure>
   <crystal>
    <varray name="basis" >
     <v>      10.00000000       0.00000000       0.00000000 </v>
     <v>       0.00000000      10.00000000       0.00000000 </v>
     <v>       0.00000000       0.00000000      10.00000000 </v>
    </varray>
    <i name="volume">   1000.00000000 </i>
    <varray name="rec_basis" >
     <v>       0.10000000       0.00000000       0.00000000 </v>
     <v>       0.00000000       0.10000000       0.00000000 </v>
     <v>       0.00000000       0.00000000       0.10000000 </v>
    </varray>
   </crystal>
   <varray name="positions" >
    <v>       0.50000000       0.50000000       0.50000000 </v>
   </varray>
  </structure>
  <varray name="forces" >
   <v>      -0.00000000       0.00000000      -0.00000000 </v>
  </varray>
  <varray name="stress" >
   <v>      -0.01794437      -0.00000000       0.00000000 </v>
   <v>      -0.00000000      -0.01794437      -0.00000000 </v>
   <v>       0.00000000      -0.00000000      -0.01794437 </v>
  </varray>
  <energy>
   <i name="e_fr_energy">     -0.11289070 </i>
   <i name="e_wo_entrp">     -0.00005279 </i>
   <i name="e_0_energy">     -0.05647175 </i>
  </energy>
  <time name="totalsc">  122.61  128.44</time>
  <eigenvalues>
   <array>
    <dimension dim="1">band</dimension>
    <dimension dim="2">kpoint</dimension>
    <dimension dim="3">spin</dimension>
    <field>eigene</field>
    <field>occ</field>
    <set>
     <set comment="spin 1">
      <set comment="kpoint 1">
       <r>   -6.4635    0.5004 </r>
       <r>   -0.1931    0.0000 </r>
       <r>    0.8488    0.0000 </r>
       <r>    0.8488    0.0000 </r>
      </set>
      <set comment="kpoint 2">
       <r>   -6.4636    0.5004 </r>
       <r>   -0.1876    0.0000 </r>
       <r>    0.8010    0.0000 </r>
       <r>    0.8531    0.0000 </r>
      </set>
      <set comment="kpoint 3">
       <r>   -6.4635    0.5003 </r>
       <r>   -0.1710    0.0000 </r>
       <r>    0.6976    0.0000 </r>
       <r>    0.8657    0.0000 </r>
      </set>
      <set comment="kpoint 4">
       <r>   -6.4635    0.5002 </r>
       <r>   -0.1433    0.0000 </r>
       <r>    0.5804    0.0000 </r>
       <r>    0.8855    0.0000 </r>
      </set>
      <set comment="kpoint 5">
       <r>   -6.4635    0.5002 </r>
       <r>   -0.1047    0.0000 </r>
       <r>    0.4642    0.0000 </r>
       <r>    0.9107    0.0000 </r>
      </set>
      <set comment="kpoint 6">
       <r>   -6.4635    0.5002 </r>
       <r>   -0.0553    0.0000 </r>
       <r>    0.3545    0.0000 </r>
       <r>    0.9377    0.0000 </r>
      </set>
      <set comment="kpoint 7">
       <r>   -6.4635    0.5001 </r>
       <r>    0.0045    0.0000 </r>
       <r>    0.2537    0.0000 </r>
       <r>    0.9616    0.0000 </r>
      </set>
      <set comment="kpoint 8">
       <r>   -6.4634    0.5001 </r>
       <r>    0.0720    0.0000 </r>
       <r>    0.1654    0.0000 </r>
       <r>    0.9760    0.0000 </r>
      </set>
      <set comment="kpoint 9">
       <r>   -6.4635    0.5004 </r>
       <r>   -0.1821    0.0000 </r>
       <r>    0.7908    0.0000 </r>
       <r>    0.8214    0.0000 </r>
      </set>
      <set comment="kpoint 10">
       <r>   -6.4635    0.5003 </r>
       <r>   -0.1654    0.0000 </r>
       <r>    0.6987    0.0000 </r>
       <r>    0.8253    0.0000 </r>
      </set>
      <set comment="kpoint 11">
       <r>   -6.4635    0.5002 </r>
       <r>   -0.1378    0.0000 </r>
       <r>    0.5833    0.0000 </r>
       <r>    0.8457    0.0000 </r>
      </set>
      <set comment="kpoint 12">
       <r>   -6.4635    0.5002 </r>
       <r>   -0.0992    0.0000 </r>
       <r>    0.4681    0.0000 </r>
       <r>    0.8728    0.0000 </r>
      </set>
      <set comment="kpoint 13">
       <r>   -6.4635    0.5001 </r>
       <r>   -0.0498    0.0000 </r>
       <r>    0.3589    0.0000 </r>
       <r>    0.9027    0.0000 </r>
      </set>
      <set comment="kpoint 14">
       <r>   -6.4634    0.5001 </r>
       <r>    0.0099    0.0000 </r>
       <r>    0.2584    0.0000 </r>
       <r>    0.9301    0.0000 </r>
      </set>
      <set comment="kpoint 15">
       <r>   -6.4634    0.5001 </r>
       <r>    0.0777    0.0000 </r>
       <r>    0.1702    0.0000 </r>
       <r>    0.9474    0.0000 </r>
      </set>
      <set comment="kpoint 16">
       <r>   -6.4635    0.5002 </r>
       <r>   -0.1488    0.0000 </r>
       <r>    0.6794    0.0000 </r>
       <r>    0.7606    0.0000 </r>
      </set>
      <set comment="kpoint 17">
       <r>   -6.4635    0.5002 </r>
       <r>   -0.1212    0.0000 </r>
       <r>    0.5884    0.0000 </r>
       <r>    0.7609    0.0000 </r>
      </set>
      <set comment="kpoint 18">
       <r>   -6.4635    0.5001 </r>
       <r>   -0.0827    0.0000 </r>
       <r>    0.4786    0.0000 </r>
       <r>    0.7873    0.0000 </r>
      </set>
      <set comment="kpoint 19">
       <r>   -6.4635    0.5001 </r>
       <r>   -0.0334    0.0000 </r>
       <r>    0.3717    0.0000 </r>
       <r>    0.8210    0.0000 </r>
      </set>
      <set comment="kpoint 20">
       <r>   -6.4635    0.5001 </r>
       <r>    0.0263    0.0000 </r>
       <r>    0.2724    0.0000 </r>
       <r>    0.8543    0.0000 </r>
      </set>
      <set comment="kpoint 21">
       <r>   -6.4634    0.5000 </r>
       <r>    0.0944    0.0000 </r>
       <r>    0.1844    0.0000 </r>
       <r>    0.8767    0.0000 </r>
      </set>
      <set comment="kpoint 22">
       <r>   -6.4635    0.5002 </r>
       <r>   -0.0937    0.0000 </r>
       <r>    0.5690    0.0000 </r>
       <r>    0.6937    0.0000 </r>
      </set>
      <set comment="kpoint 23">
       <r>   -6.4635    0.5001 </r>
       <r>   -0.0552    0.0000 </r>
       <r>    0.4894    0.0000 </r>
       <r>    0.6941    0.0000 </r>
      </set>
      <set comment="kpoint 24">
       <r>   -6.4634    0.5001 </r>
       <r>   -0.0061    0.0000 </r>
       <r>    0.3908    0.0000 </r>
       <r>    0.7249    0.0000 </r>
      </set>
      <set comment="kpoint 25">
       <r>   -6.4634    0.5001 </r>
       <r>    0.0534    0.0000 </r>
       <r>    0.2948    0.0000 </r>
       <r>    0.7618    0.0000 </r>
      </set>
      <set comment="kpoint 26">
       <r>   -6.4634    0.5001 </r>
       <r>    0.1217    0.0000 </r>
       <r>    0.2077    0.0000 </r>
       <r>    0.7892    0.0000 </r>
      </set>
      <set comment="kpoint 27">
       <r>   -6.4634    0.5001 </r>
       <r>   -0.0170    0.0000 </r>
       <r>    0.4751    0.0000 </r>
       <r>    0.6335    0.0000 </r>
      </set>
      <set comment="kpoint 28">
       <r>   -6.4634    0.5001 </r>
       <r>    0.0318    0.0000 </r>
       <r>    0.4090    0.0000 </r>
       <r>    0.6365    0.0000 </r>
      </set>
      <set comment="kpoint 29">
       <r>   -6.4634    0.5000 </r>
       <r>    0.0908    0.0000 </r>
       <r>    0.3232    0.0000 </r>
       <r>    0.6691    0.0000 </r>
      </set>
      <set comment="kpoint 30">
       <r>   -6.4634    0.5000 </r>
       <r>    0.1587    0.0000 </r>
       <r>    0.2395    0.0000 </r>
       <r>    0.6993    0.0000 </r>
      </set>
      <set comment="kpoint 31">
       <r>   -6.4634    0.5000 </r>
       <r>    0.0800    0.0000 </r>
       <r>    0.4027    0.0000 </r>
       <r>    0.5843    0.0000 </r>
      </set>
      <set comment="kpoint 32">
       <r>   -6.4634    0.5000 </r>
       <r>    0.1378    0.0000 </r>
       <r>    0.3501    0.0000 </r>
       <r>    0.5894    0.0000 </r>
      </set>
      <set comment="kpoint 33">
       <r>   -6.4634    0.5000 </r>
       <r>    0.2039    0.0000 </r>
       <r>    0.2776    0.0000 </r>
       <r>    0.6149    0.0000 </r>
      </set>
      <set comment="kpoint 34">
       <r>   -6.4634    0.4999 </r>
       <r>    0.1931    0.0000 </r>
       <r>    0.3537    0.0000 </r>
       <r>    0.5442    0.0000 </r>
      </set>
      <set comment="kpoint 35">
       <r>   -6.4634    0.4999 </r>
       <r>    0.2542    0.0000 </r>
       <r>    0.3144    0.0000 </r>
       <r>    0.5440    0.0000 </r>
      </set>
      <set comment="kpoint 36">
       <r>   -6.4634    0.4999 </r>
       <r>    0.3024    0.0000 </r>
       <r>    0.3291    0.0000 </r>
       <r>    0.5015    0.0000 </r>
      </set>
      <set comment="kpoint 37">
       <r>   -6.4635    0.5004 </r>
       <r>   -0.1765    0.0000 </r>
       <r>    0.7954    0.0000 </r>
       <r>    0.7954    0.0000 </r>
      </set>
      <set comment="kpoint 38">
       <r>   -6.4635    0.5003 </r>
       <r>   -0.1599    0.0000 </r>
       <r>    0.7006    0.0000 </r>
       <r>    0.8090    0.0000 </r>
      </set>
      <set comment="kpoint 39">
       <r>   -6.4635    0.5002 </r>
       <r>   -0.1323    0.0000 </r>
       <r>    0.5865    0.0000 </r>
       <r>    0.8306    0.0000 </r>
      </set>
      <set comment="kpoint 40">
       <r>   -6.4635    0.5002 </r>
       <r>   -0.0937    0.0000 </r>
       <r>    0.4721    0.0000 </r>
       <r>    0.8582    0.0000 </r>
      </set>
      <set comment="kpoint 41">
       <r>   -6.4635    0.5001 </r>
       <r>   -0.0443    0.0000 </r>
       <r>    0.3634    0.0000 </r>
       <r>    0.8885    0.0000 </r>
      </set>
      <set comment="kpoint 42">
       <r>   -6.4634    0.5001 </r>
       <r>    0.0154    0.0000 </r>
       <r>    0.2632    0.0000 </r>
       <r>    0.9157    0.0000 </r>
      </set>
      <set comment="kpoint 43">
       <r>   -6.4634    0.5001 </r>
       <r>    0.0833    0.0000 </r>
       <r>    0.1749    0.0000 </r>
       <r>    0.9324    0.0000 </r>
      </set>
      <set comment="kpoint 44">
       <r>   -6.4635    0.5002 </r>
       <r>   -0.1433    0.0000 </r>
       <r>    0.6844    0.0000 </r>
       <r>    0.7520    0.0000 </r>
      </set>
      <set comment="kpoint 45">
       <r>   -6.4635    0.5002 </r>
       <r>   -0.1157    0.0000 </r>
       <r>    0.5924    0.0000 </r>
       <r>    0.7561    0.0000 </r>
      </set>
      <set comment="kpoint 46">
       <r>   -6.4635    0.5002 </r>
       <r>   -0.0772    0.0000 </r>
       <r>    0.4828    0.0000 </r>
       <r>    0.7834    0.0000 </r>
      </set>
      <set comment="kpoint 47">
       <r>   -6.4634    0.5001 </r>
       <r>   -0.0279    0.0000 </r>
       <r>    0.3763    0.0000 </r>
       <r>    0.8170    0.0000 </r>
      </set>
      <set comment="kpoint 48">
       <r>   -6.4634    0.5001 </r>
       <r>    0.0318    0.0000 </r>
       <r>    0.2772    0.0000 </r>
       <r>    0.8494    0.0000 </r>
      </set>
      <set comment="kpoint 49">
       <r>   -6.4634    0.5001 </r>
       <r>    0.0999    0.0000 </r>
       <r>    0.1892    0.0000 </r>
       <r>    0.8706    0.0000 </r>
      </set>
      <set comment="kpoint 50">
       <r>   -6.4635    0.5001 </r>
       <r>   -0.0882    0.0000 </r>
       <r>    0.5742    0.0000 </r>
       <r>    0.6907    0.0000 </r>
      </set>
      <set comment="kpoint 51">
       <r>   -6.4635    0.5001 </r>
       <r>   -0.0497    0.0000 </r>
       <r>    0.4942    0.0000 </r>
       <r>    0.6929    0.0000 </r>
      </set>
      <set comment="kpoint 52">
       <r>   -6.4634    0.5001 </r>
       <r>   -0.0006    0.0000 </r>
       <r>    0.3956    0.0000 </r>
       <r>    0.7240    0.0000 </r>
      </set>
      <set comment="kpoint 53">
       <r>   -6.4634    0.5000 </r>
       <r>    0.0589    0.0000 </r>
       <r>    0.2997    0.0000 </r>
       <r>    0.7603    0.0000 </r>
      </set>
      <set comment="kpoint 54">
       <r>   -6.4634    0.5000 </r>
       <r>    0.1272    0.0000 </r>
       <r>    0.2126    0.0000 </r>
       <r>    0.7867    0.0000 </r>
      </set>
      <set comment="kpoint 55">
       <r>   -6.4634    0.5001 </r>
       <r>   -0.0115    0.0000 </r>
       <r>    0.4804    0.0000 </r>
       <r>    0.6332    0.0000 </r>
      </set>
      <set comment="kpoint 56">
       <r>   -6.4634    0.5000 </r>
       <r>    0.0373    0.0000 </r>
       <r>    0.4140    0.0000 </r>
       <r>    0.6369    0.0000 </r>
      </set>
      <set comment="kpoint 57">
       <r>   -6.4634    0.5000 </r>
       <r>    0.0962    0.0000 </r>
       <r>    0.3282    0.0000 </r>
       <r>    0.6694    0.0000 </r>
      </set>
      <set comment="kpoint 58">
       <r>   -6.4634    0.5000 </r>
       <r>    0.1642    0.0000 </r>
       <r>    0.2445    0.0000 </r>
       <r>    0.6988    0.0000 </r>
      </set>
      <set comment="kpoint 59">
       <r>   -6.4634    0.5000 </r>
       <r>    0.0854    0.0000 </r>
       <r>    0.4081    0.0000 </r>
       <r>    0.5852    0.0000 </r>
      </set>
      <set comment="kpoint 60">
       <r>   -6.4634    0.5000 </r>
       <r>    0.1431    0.0000 </r>
       <r>    0.3554    0.0000 </r>
       <r>    0.5905    0.0000 </r>
      </set>
      <set comment="kpoint 61">
       <r>   -6.4634    0.4999 </r>
       <r>    0.2092    0.0000 </r>
       <r>    0.2827    0.0000 </r>
       <r>    0.6156    0.0000 </r>
      </set>
      <set comment="kpoint 62">
       <r>   -6.4634    0.4999 </r>
       <r>    0.1984    0.0000 </r>
       <r>    0.3592    0.0000 </r>
       <r>    0.5455    0.0000 </r>
      </set>
      <set comment="kpoint 63">
       <r>   -6.4634    0.4999 </r>
       <r>    0.2595    0.0000 </r>
       <r>    0.3197    0.0000 </r>
       <r>    0.5452    0.0000 </r>
      </set>
      <set comment="kpoint 64">
       <r>   -6.4634    0.4999 </r>
       <r>    0.3077    0.0000 </r>
       <r>    0.3345    0.0000 </r>
       <r>    0.5026    0.0000 </r>
      </set>
      <set comment="kpoint 65">
       <r>   -6.4635    0.5002 </r>
       <r>   -0.1267    0.0000 </r>
       <r>    0.6991    0.0000 </r>
       <r>    0.6991    0.0000 </r>
      </set>
      <set comment="kpoint 66">
       <r>   -6.4635    0.5002 </r>
       <r>   -0.0992    0.0000 </r>
       <r>    0.6018    0.0000 </r>
       <r>    0.7227    0.0000 </r>
      </set>
      <set comment="kpoint 67">
       <r>   -6.4635    0.5001 </r>
       <r>   -0.0607    0.0000 </r>
       <r>    0.4944    0.0000 </r>
       <r>    0.7532    0.0000 </r>
      </set>
      <set comment="kpoint 68">
       <r>   -6.4634    0.5001 </r>
       <r>   -0.0115    0.0000 </r>
       <r>    0.3895    0.0000 </r>
       <r>    0.7874    0.0000 </r>
      </set>
      <set comment="kpoint 69">
       <r>   -6.4634    0.5001 </r>
       <r>    0.0482    0.0000 </r>
       <r>    0.2914    0.0000 </r>
       <r>    0.8191    0.0000 </r>
      </set>
      <set comment="kpoint 70">
       <r>   -6.4634    0.5000 </r>
       <r>    0.1165    0.0000 </r>
       <r>    0.2035    0.0000 </r>
       <r>    0.8392    0.0000 </r>
      </set>
      <set comment="kpoint 71">
       <r>   -6.4635    0.5001 </r>
       <r>   -0.0716    0.0000 </r>
       <r>    0.5895    0.0000 </r>
       <r>    0.6719    0.0000 </r>
      </set>
      <set comment="kpoint 72">
       <r>   -6.4634    0.5001 </r>
       <r>   -0.0333    0.0000 </r>
       <r>    0.5077    0.0000 </r>
       <r>    0.6828    0.0000 </r>
      </set>
      <set comment="kpoint 73">
       <r>   -6.4634    0.5000 </r>
       <r>    0.0158    0.0000 </r>
       <r>    0.4093    0.0000 </r>
       <r>    0.7158    0.0000 </r>
      </set>
      <set comment="kpoint 74">
       <r>   -6.4634    0.5000 </r>
       <r>    0.0751    0.0000 </r>
       <r>    0.3141    0.0000 </r>
       <r>    0.7506    0.0000 </r>
      </set>
      <set comment="kpoint 75">
       <r>   -6.4634    0.5000 </r>
       <r>    0.1436    0.0000 </r>
       <r>    0.2272    0.0000 </r>
       <r>    0.7742    0.0000 </r>
      </set>
      <set comment="kpoint 76">
       <r>   -6.4634    0.5000 </r>
       <r>    0.0049    0.0000 </r>
       <r>    0.4961    0.0000 </r>
       <r>    0.6286    0.0000 </r>
      </set>
      <set comment="kpoint 77">
       <r>   -6.4634    0.5000 </r>
       <r>    0.0536    0.0000 </r>
       <r>    0.4289    0.0000 </r>
       <r>    0.6358    0.0000 </r>
      </set>
      <set comment="kpoint 78">
       <r>   -6.4634    0.5000 </r>
       <r>    0.1123    0.0000 </r>
       <r>    0.3430    0.0000 </r>
       <r>    0.6682    0.0000 </r>
      </set>
      <set comment="kpoint 79">
       <r>   -6.4634    0.4999 </r>
       <r>    0.1803    0.0000 </r>
       <r>    0.2594    0.0000 </r>
       <r>    0.6953    0.0000 </r>
      </set>
      <set comment="kpoint 80">
       <r>   -6.4634    0.5000 </r>
       <r>    0.1015    0.0000 </r>
       <r>    0.4240    0.0000 </r>
       <r>    0.5864    0.0000 </r>
      </set>
      <set comment="kpoint 81">
       <r>   -6.4634    0.4999 </r>
       <r>    0.1591    0.0000 </r>
       <r>    0.3708    0.0000 </r>
       <r>    0.5928    0.0000 </r>
      </set>
      <set comment="kpoint 82">
       <r>   -6.4634    0.4999 </r>
       <r>    0.2251    0.0000 </r>
       <r>    0.2979    0.0000 </r>
       <r>    0.6167    0.0000 </r>
      </set>
      <set comment="kpoint 83">
       <r>   -6.4634    0.4999 </r>
       <r>    0.2142    0.0000 </r>
       <r>    0.3752    0.0000 </r>
       <r>    0.5488    0.0000 </r>
      </set>
      <set comment="kpoint 84">
       <r>   -6.4634    0.4999 </r>
       <r>    0.2751    0.0000 </r>
       <r>    0.3354    0.0000 </r>
       <r>    0.5483    0.0000 </r>
      </set>
      <set comment="kpoint 85">
       <r>   -6.4634    0.4999 </r>
       <r>    0.3235    0.0000 </r>
       <r>    0.3506    0.0000 </r>
       <r>    0.5057    0.0000 </r>
      </set>
      <set comment="kpoint 86">
       <r>   -6.4634    0.5001 </r>
       <r>   -0.0442    0.0000 </r>
       <r>    0.6142    0.0000 </r>
       <r>    0.6142    0.0000 </r>
      </set>
      <set comment="kpoint 87">
       <r>   -6.4634    0.5000 </r>
       <r>   -0.0059    0.0000 </r>
       <r>    0.5261    0.0000 </r>
       <r>    0.6465    0.0000 </r>
      </set>
      <set comment="kpoint 88">
       <r>   -6.4634    0.5000 </r>
       <r>    0.0429    0.0000 </r>
       <r>    0.4304    0.0000 </r>
       <r>    0.6830    0.0000 </r>
      </set>
      <set comment="kpoint 89">
       <r>   -6.4634    0.5000 </r>
       <r>    0.1020    0.0000 </r>
       <r>    0.3373    0.0000 </r>
       <r>    0.7176    0.0000 </r>
      </set>
      <set comment="kpoint 90">
       <r>   -6.4634    0.4999 </r>
       <r>    0.1704    0.0000 </r>
       <r>    0.2512    0.0000 </r>
       <r>    0.7399    0.0000 </r>
      </set>
      <set comment="kpoint 91">
       <r>   -6.4634    0.5000 </r>
       <r>    0.0321    0.0000 </r>
       <r>    0.5214    0.0000 </r>
       <r>    0.6070    0.0000 </r>
      </set>
      <set comment="kpoint 92">
       <r>   -6.4634    0.5000 </r>
       <r>    0.0805    0.0000 </r>
       <r>    0.4523    0.0000 </r>
       <r>    0.6246    0.0000 </r>
      </set>
      <set comment="kpoint 93">
       <r>   -6.4634    0.4999 </r>
       <r>    0.1390    0.0000 </r>
       <r>    0.3668    0.0000 </r>
       <r>    0.6581    0.0000 </r>
      </set>
      <set comment="kpoint 94">
       <r>   -6.4634    0.4999 </r>
       <r>    0.2067    0.0000 </r>
       <r>    0.2839    0.0000 </r>
       <r>    0.6825    0.0000 </r>
      </set>
      <set comment="kpoint 95">
       <r>   -6.4634    0.4999 </r>
       <r>    0.1282    0.0000 </r>
       <r>    0.4497    0.0000 </r>
       <r>    0.5828    0.0000 </r>
      </set>
      <set comment="kpoint 96">
       <r>   -6.4634    0.4999 </r>
       <r>    0.1854    0.0000 </r>
       <r>    0.3957    0.0000 </r>
       <r>    0.5928    0.0000 </r>
      </set>
      <set comment="kpoint 97">
       <r>   -6.4634    0.4999 </r>
       <r>    0.2509    0.0000 </r>
       <r>    0.3228    0.0000 </r>
       <r>    0.6154    0.0000 </r>
      </set>
      <set comment="kpoint 98">
       <r>   -6.4634    0.4999 </r>
       <r>    0.2400    0.0000 </r>
       <r>    0.4011    0.0000 </r>
       <r>    0.5520    0.0000 </r>
      </set>
      <set comment="kpoint 99">
       <r>   -6.4634    0.4998 </r>
       <r>    0.3005    0.0000 </r>
       <r>    0.3609    0.0000 </r>
       <r>    0.5521    0.0000 </r>
      </set>
      <set comment="kpoint 100">
       <r>   -6.4634    0.4999 </r>
       <r>    0.3489    0.0000 </r>
       <r>    0.3767    0.0000 </r>
       <r>    0.5104    0.0000 </r>
      </set>
      <set comment="kpoint 101">
       <r>   -6.4634    0.4999 </r>
       <r>    0.0698    0.0000 </r>
       <r>    0.5547    0.0000 </r>
       <r>    0.5547    0.0000 </r>
      </set>
      <set comment="kpoint 102">
       <r>   -6.4634    0.4999 </r>
       <r>    0.1178    0.0000 </r>
       <r>    0.4795    0.0000 </r>
       <r>    0.5927    0.0000 </r>
      </set>
      <set comment="kpoint 103">
       <r>   -6.4634    0.4999 </r>
       <r>    0.1756    0.0000 </r>
       <r>    0.3973    0.0000 </r>
       <r>    0.6290    0.0000 </r>
      </set>
      <set comment="kpoint 104">
       <r>   -6.4634    0.4998 </r>
       <r>    0.2423    0.0000 </r>
       <r>    0.3170    0.0000 </r>
       <r>    0.6527    0.0000 </r>
      </set>
      <set comment="kpoint 105">
       <r>   -6.4634    0.4999 </r>
       <r>    0.1650    0.0000 </r>
       <r>    0.4836    0.0000 </r>
       <r>    0.5642    0.0000 </r>
      </set>
      <set comment="kpoint 106">
       <r>   -6.4634    0.4999 </r>
       <r>    0.2214    0.0000 </r>
       <r>    0.4280    0.0000 </r>
       <r>    0.5836    0.0000 </r>
      </set>
      <set comment="kpoint 107">
       <r>   -6.4634    0.4998 </r>
       <r>    0.2858    0.0000 </r>
       <r>    0.3563    0.0000 </r>
       <r>    0.6064    0.0000 </r>
      </set>
      <set comment="kpoint 108">
       <r>   -6.4634    0.4998 </r>
       <r>    0.2752    0.0000 </r>
       <r>    0.4354    0.0000 </r>
       <r>    0.5510    0.0000 </r>
      </set>
      <set comment="kpoint 109">
       <r>   -6.4633    0.4998 </r>
       <r>    0.3345    0.0000 </r>
       <r>    0.3947    0.0000 </r>
       <r>    0.5542    0.0000 </r>
      </set>
      <set comment="kpoint 110">
       <r>   -6.4633    0.4998 </r>
       <r>    0.3826    0.0000 </r>
       <r>    0.4110    0.0000 </r>
       <r>    0.5158    0.0000 </r>
      </set>
      <set comment="kpoint 111">
       <r>   -6.4633    0.4998 </r>
       <r>    0.2114    0.0000 </r>
       <r>    0.5224    0.0000 </r>
       <r>    0.5224    0.0000 </r>
      </set>
      <set comment="kpoint 112">
       <r>   -6.4633    0.4998 </r>
       <r>    0.2662    0.0000 </r>
       <r>    0.4625    0.0000 </r>
       <r>    0.5598    0.0000 </r>
      </set>
      <set comment="kpoint 113">
       <r>   -6.4633    0.4998 </r>
       <r>    0.3280    0.0000 </r>
       <r>    0.3956    0.0000 </r>
       <r>    0.5844    0.0000 </r>
      </set>
      <set comment="kpoint 114">
       <r>   -6.4633    0.4998 </r>
       <r>    0.3184    0.0000 </r>
       <r>    0.4747    0.0000 </r>
       <r>    0.5397    0.0000 </r>
      </set>
      <set comment="kpoint 115">
       <r>   -6.4633    0.4997 </r>
       <r>    0.3751    0.0000 </r>
       <r>    0.4338    0.0000 </r>
       <r>    0.5507    0.0000 </r>
      </set>
      <set comment="kpoint 116">
       <r>   -6.4633    0.4997 </r>
       <r>    0.4218    0.0000 </r>
       <r>    0.4506    0.0000 </r>
       <r>    0.5204    0.0000 </r>
      </set>
      <set comment="kpoint 117">
       <r>   -6.4633    0.4997 </r>
       <r>    0.3676    0.0000 </r>
       <r>    0.5127    0.0000 </r>
       <r>    0.5127    0.0000 </r>
      </set>
      <set comment="kpoint 118">
       <r>   -6.4633    0.4997 </r>
       <r>    0.4191    0.0000 </r>
       <r>    0.4715    0.0000 </r>
       <r>    0.5379    0.0000 </r>
      </set>
      <set comment="kpoint 119">
       <r>   -6.4633    0.4997 </r>
       <r>    0.4614    0.0000 </r>
       <r>    0.4889    0.0000 </r>
       <r>    0.5213    0.0000 </r>
      </set>
      <set comment="kpoint 120">
       <r>   -6.4633    0.4997 </r>
       <r>    0.4941    0.0000 </r>
       <r>    0.5143    0.0000 </r>
       <r>    0.5143    0.0000 </r>
      </set>
     </set>
    </set>
   </array>
  </eigenvalues>
  <separator name="orbital magnetization" >
   <v name="MAGDIPOLOUT">      0.00000000      0.00000000      0.00000000</v>
  </separator>
  <dos>
   <i name="efermi">     -6.46341444 </i>
   <total>
    <array>
     <dimension dim="1">gridpoints</dimension>
     <dimension dim="2">spin</dimension>
     <field>energy</field>
     <field>total</field>
     <field>integrated</field>
     <set>
      <set comment="spin 1">
       <r>    -8.4636     0.0000     0.0000 </r>
       <r>    -8.4254     0.0000     0.0000 </r>
       <r>    -8.3873     0.0000     0.0000 </r>
       <r>    -8.3492     0.0000     0.0000 </r>
       <r>    -8.3110     0.0000     0.0000 </r>
       <r>    -8.2729     0.0000     0.0000 </r>
       <r>    -8.2348     0.0000     0.0000 </r>
       <r>    -8.1966     0.0000     0.0000 </r>
       <r>    -8.1585     0.0000     0.0000 </r>
       <r>    -8.1204     0.0000     0.0000 </r>
       <r>    -8.0822     0.0000     0.0000 </r>
       <r>    -8.0441     0.0000     0.0000 </r>
       <r>    -8.0060     0.0000     0.0000 </r>
       <r>    -7.9678     0.0000     0.0000 </r>
       <r>    -7.9297     0.0000     0.0000 </r>
       <r>    -7.8916     0.0000     0.0000 </r>
       <r>    -7.8534     0.0000     0.0000 </r>
       <r>    -7.8153     0.0000     0.0000 </r>
       <r>    -7.7772     0.0000     0.0000 </r>
       <r>    -7.7390     0.0000     0.0000 </r>
       <r>    -7.7009     0.0000     0.0000 </r>
       <r>    -7.6628     0.0000     0.0000 </r>
       <r>    -7.6247     0.0000     0.0000 </r>
       <r>    -7.5865     0.0000     0.0000 </r>
       <r>    -7.5484     0.0000     0.0000 </r>
       <r>    -7.5103     0.0000     0.0000 </r>
       <r>    -7.4721     0.0000     0.0000 </r>
       <r>    -7.4340     0.0000     0.0000 </r>
       <r>    -7.3959     0.0000     0.0000 </r>
       <r>    -7.3577     0.0000     0.0000 </r>
       <r>    -7.3196     0.0000     0.0000 </r>
       <r>    -7.2815     0.0000     0.0000 </r>
       <r>    -7.2433     0.0000     0.0000 </r>
       <r>    -7.2052     0.0000     0.0000 </r>
       <r>    -7.1671     0.0000     0.0000 </r>
       <r>    -7.1289     0.0000     0.0000 </r>
       <r>    -7.0908     0.0002     0.0000 </r>
       <r>    -7.0527     0.0006     0.0000 </r>
       <r>    -7.0145     0.0017     0.0001 </r>
       <r>    -6.9764     0.0050     0.0003 </r>
       <r>    -6.9383     0.0131     0.0008 </r>
       <r>    -6.9001     0.0322     0.0020 </r>
       <r>    -6.8620     0.0737     0.0048 </r>
       <r>    -6.8239     0.1569     0.0108 </r>
       <r>    -6.7858     0.3106     0.0227 </r>
       <r>    -6.7476     0.5722     0.0445 </r>
       <r>    -6.7095     0.9805     0.0819 </r>
       <r>    -6.6714     1.5630     0.1415 </r>
       <r>    -6.6332     2.3180     0.2298 </r>
       <r>    -6.5951     3.1980     0.3518 </r>
       <r>    -6.5570     4.1044     0.5083 </r>
       <r>    -6.5188     4.9005     0.6952 </r>
       <r>    -6.4807     5.4432     0.9027 </r>
       <r>    -6.4426     5.6244     1.1172 </r>
       <r>    -6.4044     5.4065     1.3233 </r>
       <r>    -6.3663     4.8348     1.5077 </r>
       <r>    -6.3282     4.0221     1.6611 </r>
       <r>    -6.2900     3.1128     1.7798 </r>
       <r>    -6.2519     2.2411     1.8652 </r>
       <r>    -6.2138     1.5010     1.9225 </r>
       <r>    -6.1756     0.9352     1.9581 </r>
       <r>    -6.1375     0.5421     1.9788 </r>
       <r>    -6.0994     0.2923     1.9899 </r>
       <r>    -6.0613     0.1466     1.9955 </r>
       <r>    -6.0231     0.0684     1.9982 </r>
       <r>    -5.9850     0.0297     1.9993 </r>
       <r>    -5.9469     0.0120     1.9997 </r>
       <r>    -5.9087     0.0045     1.9999 </r>
       <r>    -5.8706     0.0016     2.0000 </r>
       <r>    -5.8325     0.0005     2.0000 </r>
       <r>    -5.7943     0.0002     2.0000 </r>
       <r>    -5.7562     0.0000     2.0000 </r>
       <r>    -5.7181     0.0000     2.0000 </r>
       <r>    -5.6799     0.0000     2.0000 </r>
       <r>    -5.6418     0.0000     2.0000 </r>
       <r>    -5.6037     0.0000     2.0000 </r>
       <r>    -5.5655     0.0000     2.0000 </r>
       <r>    -5.5274     0.0000     2.0000 </r>
       <r>    -5.4893     0.0000     2.0000 </r>
       <r>    -5.4511     0.0000     2.0000 </r>
       <r>    -5.4130     0.0000     2.0000 </r>
       <r>    -5.3749     0.0000     2.0000 </r>
       <r>    -5.3367     0.0000     2.0000 </r>
       <r>    -5.2986     0.0000     2.0000 </r>
       <r>    -5.2605     0.0000     2.0000 </r>
       <r>    -5.2224     0.0000     2.0000 </r>
       <r>    -5.1842     0.0000     2.0000 </r>
       <r>    -5.1461     0.0000     2.0000 </r>
       <r>    -5.1080     0.0000     2.0000 </r>
       <r>    -5.0698     0.0000     2.0000 </r>
       <r>    -5.0317     0.0000     2.0000 </r>
       <r>    -4.9936     0.0000     2.0000 </r>
       <r>    -4.9554     0.0000     2.0000 </r>
       <r>    -4.9173     0.0000     2.0000 </r>
       <r>    -4.8792     0.0000     2.0000 </r>
       <r>    -4.8410     0.0000     2.0000 </r>
       <r>    -4.8029     0.0000     2.0000 </r>
       <r>    -4.7648     0.0000     2.0000 </r>
       <r>    -4.7266     0.0000     2.0000 </r>
       <r>    -4.6885     0.0000     2.0000 </r>
       <r>    -4.6504     0.0000     2.0000 </r>
       <r>    -4.6122     0.0000     2.0000 </r>
       <r>    -4.5741     0.0000     2.0000 </r>
       <r>    -4.5360     0.0000     2.0000 </r>
       <r>    -4.4978     0.0000     2.0000 </r>
       <r>    -4.4597     0.0000     2.0000 </r>
       <r>    -4.4216     0.0000     2.0000 </r>
       <r>    -4.3835     0.0000     2.0000 </r>
       <r>    -4.3453     0.0000     2.0000 </r>
       <r>    -4.3072     0.0000     2.0000 </r>
       <r>    -4.2691     0.0000     2.0000 </r>
       <r>    -4.2309     0.0000     2.0000 </r>
       <r>    -4.1928     0.0000     2.0000 </r>
       <r>    -4.1547     0.0000     2.0000 </r>
       <r>    -4.1165     0.0000     2.0000 </r>
       <r>    -4.0784     0.0000     2.0000 </r>
       <r>    -4.0403     0.0000     2.0000 </r>
       <r>    -4.0021     0.0000     2.0000 </r>
       <r>    -3.9640     0.0000     2.0000 </r>
       <r>    -3.9259     0.0000     2.0000 </r>
       <r>    -3.8877     0.0000     2.0000 </r>
       <r>    -3.8496     0.0000     2.0000 </r>
       <r>    -3.8115     0.0000     2.0000 </r>
       <r>    -3.7733     0.0000     2.0000 </r>
       <r>    -3.7352     0.0000     2.0000 </r>
       <r>    -3.6971     0.0000     2.0000 </r>
       <r>    -3.6589     0.0000     2.0000 </r>
       <r>    -3.6208     0.0000     2.0000 </r>
       <r>    -3.5827     0.0000     2.0000 </r>
       <r>    -3.5446     0.0000     2.0000 </r>
       <r>    -3.5064     0.0000     2.0000 </r>
       <r>    -3.4683     0.0000     2.0000 </r>
       <r>    -3.4302     0.0000     2.0000 </r>
       <r>    -3.3920     0.0000     2.0000 </r>
       <r>    -3.3539     0.0000     2.0000 </r>
       <r>    -3.3158     0.0000     2.0000 </r>
       <r>    -3.2776     0.0000     2.0000 </r>
       <r>    -3.2395     0.0000     2.0000 </r>
       <r>    -3.2014     0.0000     2.0000 </r>
       <r>    -3.1632     0.0000     2.0000 </r>
       <r>    -3.1251     0.0000     2.0000 </r>
       <r>    -3.0870     0.0000     2.0000 </r>
       <r>    -3.0488     0.0000     2.0000 </r>
       <r>    -3.0107     0.0000     2.0000 </r>
       <r>    -2.9726     0.0000     2.0000 </r>
       <r>    -2.9344     0.0000     2.0000 </r>
       <r>    -2.8963     0.0000     2.0000 </r>
       <r>    -2.8582     0.0000     2.0000 </r>
       <r>    -2.8200     0.0000     2.0000 </r>
       <r>    -2.7819     0.0000     2.0000 </r>
       <r>    -2.7438     0.0000     2.0000 </r>
       <r>    -2.7057     0.0000     2.0000 </r>
       <r>    -2.6675     0.0000     2.0000 </r>
       <r>    -2.6294     0.0000     2.0000 </r>
       <r>    -2.5913     0.0000     2.0000 </r>
       <r>    -2.5531     0.0000     2.0000 </r>
       <r>    -2.5150     0.0000     2.0000 </r>
       <r>    -2.4769     0.0000     2.0000 </r>
       <r>    -2.4387     0.0000     2.0000 </r>
       <r>    -2.4006     0.0000     2.0000 </r>
       <r>    -2.3625     0.0000     2.0000 </r>
       <r>    -2.3243     0.0000     2.0000 </r>
       <r>    -2.2862     0.0000     2.0000 </r>
       <r>    -2.2481     0.0000     2.0000 </r>
       <r>    -2.2099     0.0000     2.0000 </r>
       <r>    -2.1718     0.0000     2.0000 </r>
       <r>    -2.1337     0.0000     2.0000 </r>
       <r>    -2.0955     0.0000     2.0000 </r>
       <r>    -2.0574     0.0000     2.0000 </r>
       <r>    -2.0193     0.0000     2.0000 </r>
       <r>    -1.9812     0.0000     2.0000 </r>
       <r>    -1.9430     0.0000     2.0000 </r>
       <r>    -1.9049     0.0000     2.0000 </r>
       <r>    -1.8668     0.0000     2.0000 </r>
       <r>    -1.8286     0.0000     2.0000 </r>
       <r>    -1.7905     0.0000     2.0000 </r>
       <r>    -1.7524     0.0000     2.0000 </r>
       <r>    -1.7142     0.0000     2.0000 </r>
       <r>    -1.6761     0.0000     2.0000 </r>
       <r>    -1.6380     0.0000     2.0000 </r>
       <r>    -1.5998     0.0000     2.0000 </r>
       <r>    -1.5617     0.0000     2.0000 </r>
       <r>    -1.5236     0.0000     2.0000 </r>
       <r>    -1.4854     0.0000     2.0000 </r>
       <r>    -1.4473     0.0000     2.0000 </r>
       <r>    -1.4092     0.0000     2.0000 </r>
       <r>    -1.3710     0.0000     2.0000 </r>
       <r>    -1.3329     0.0000     2.0000 </r>
       <r>    -1.2948     0.0000     2.0000 </r>
       <r>    -1.2566     0.0000     2.0000 </r>
       <r>    -1.2185     0.0000     2.0000 </r>
       <r>    -1.1804     0.0000     2.0000 </r>
       <r>    -1.1423     0.0000     2.0000 </r>
       <r>    -1.1041     0.0000     2.0000 </r>
       <r>    -1.0660     0.0000     2.0000 </r>
       <r>    -1.0279     0.0000     2.0000 </r>
       <r>    -0.9897     0.0000     2.0000 </r>
       <r>    -0.9516     0.0000     2.0000 </r>
       <r>    -0.9135     0.0000     2.0000 </r>
       <r>    -0.8753     0.0000     2.0000 </r>
       <r>    -0.8372     0.0000     2.0000 </r>
       <r>    -0.7991     0.0000     2.0000 </r>
       <r>    -0.7609     0.0000     2.0000 </r>
       <r>    -0.7228     0.0001     2.0000 </r>
       <r>    -0.6847     0.0002     2.0000 </r>
       <r>    -0.6465     0.0007     2.0000 </r>
       <r>    -0.6084     0.0018     2.0001 </r>
       <r>    -0.5703     0.0044     2.0003 </r>
       <r>    -0.5321     0.0100     2.0007 </r>
       <r>    -0.4940     0.0217     2.0015 </r>
       <r>    -0.4559     0.0442     2.0032 </r>
       <r>    -0.4177     0.0845     2.0064 </r>
       <r>    -0.3796     0.1522     2.0122 </r>
       <r>    -0.3415     0.2588     2.0221 </r>
       <r>    -0.3034     0.4161     2.0379 </r>
       <r>    -0.2652     0.6343     2.0621 </r>
       <r>    -0.2271     0.9191     2.0972 </r>
       <r>    -0.1890     1.2702     2.1456 </r>
       <r>    -0.1508     1.6802     2.2097 </r>
       <r>    -0.1127     2.1359     2.2911 </r>
       <r>    -0.0746     2.6208     2.3911 </r>
       <r>    -0.0364     3.1187     2.5100 </r>
       <r>     0.0017     3.6162     2.6479 </r>
       <r>     0.0398     4.1049     2.8044 </r>
       <r>     0.0780     4.5802     2.9790 </r>
       <r>     0.1161     5.0395     3.1712 </r>
       <r>     0.1542     5.4793     3.3801 </r>
       <r>     0.1924     5.8921     3.6048 </r>
       <r>     0.2305     6.2659     3.8437 </r>
       <r>     0.2686     6.5857     4.0949 </r>
       <r>     0.3068     6.8373     4.3556 </r>
       <r>     0.3449     7.0117     4.6230 </r>
       <r>     0.3830     7.1080     4.8940 </r>
       <r>     0.4212     7.1333     5.1660 </r>
       <r>     0.4593     7.0983     5.4367 </r>
       <r>     0.4974     7.0125     5.7041 </r>
       <r>     0.5355     6.8784     5.9664 </r>
       <r>     0.5737     6.6910     6.2215 </r>
       <r>     0.6118     6.4400     6.4671 </r>
       <r>     0.6499     6.1148     6.7002 </r>
       <r>     0.6881     5.7102     6.9180 </r>
       <r>     0.7262     5.2294     7.1174 </r>
       <r>     0.7643     4.6846     7.2960 </r>
       <r>     0.8025     4.0955     7.4522 </r>
       <r>     0.8406     3.4858     7.5851 </r>
       <r>     0.8787     2.8811     7.6950 </r>
       <r>     0.9169     2.3060     7.7829 </r>
       <r>     0.9550     1.7817     7.8508 </r>
       <r>     0.9931     1.3248     7.9013 </r>
       <r>     1.0313     0.9448     7.9374 </r>
       <r>     1.0694     0.6443     7.9619 </r>
       <r>     1.1075     0.4189     7.9779 </r>
       <r>     1.1457     0.2590     7.9878 </r>
       <r>     1.1838     0.1519     7.9936 </r>
       <r>     1.2219     0.0843     7.9968 </r>
       <r>     1.2601     0.0442     7.9985 </r>
       <r>     1.2982     0.0219     7.9993 </r>
       <r>     1.3363     0.0102     7.9997 </r>
       <r>     1.3744     0.0045     7.9999 </r>
       <r>     1.4126     0.0018     8.0000 </r>
       <r>     1.4507     0.0007     8.0000 </r>
       <r>     1.4888     0.0003     8.0000 </r>
       <r>     1.5270     0.0001     8.0000 </r>
       <r>     1.5651     0.0000     8.0000 </r>
       <r>     1.6032     0.0000     8.0000 </r>
       <r>     1.6414     0.0000     8.0000 </r>
       <r>     1.6795     0.0000     8.0000 </r>
       <r>     1.7176     0.0000     8.0000 </r>
       <r>     1.7558     0.0000     8.0000 </r>
       <r>     1.7939     0.0000     8.0000 </r>
       <r>     1.8320     0.0000     8.0000 </r>
       <r>     1.8702     0.0000     8.0000 </r>
       <r>     1.9083     0.0000     8.0000 </r>
       <r>     1.9464     0.0000     8.0000 </r>
       <r>     1.9846     0.0000     8.0000 </r>
       <r>     2.0227     0.0000     8.0000 </r>
       <r>     2.0608     0.0000     8.0000 </r>
       <r>     2.0989     0.0000     8.0000 </r>
       <r>     2.1371     0.0000     8.0000 </r>
       <r>     2.1752     0.0000     8.0000 </r>
       <r>     2.2133     0.0000     8.0000 </r>
       <r>     2.2515     0.0000     8.0000 </r>
       <r>     2.2896     0.0000     8.0000 </r>
       <r>     2.3277     0.0000     8.0000 </r>
       <r>     2.3659     0.0000     8.0000 </r>
       <r>     2.4040     0.0000     8.0000 </r>
       <r>     2.4421     0.0000     8.0000 </r>
       <r>     2.4803     0.0000     8.0000 </r>
       <r>     2.5184     0.0000     8.0000 </r>
       <r>     2.5565     0.0000     8.0000 </r>
       <r>     2.5947     0.0000     8.0000 </r>
       <r>     2.6328     0.0000     8.0000 </r>
       <r>     2.6709     0.0000     8.0000 </r>
       <r>     2.7091     0.0000     8.0000 </r>
       <r>     2.7472     0.0000     8.0000 </r>
       <r>     2.7853     0.0000     8.0000 </r>
       <r>     2.8235     0.0000     8.0000 </r>
       <r>     2.8616     0.0000     8.0000 </r>
       <r>     2.8997     0.0000     8.0000 </r>
       <r>     2.9378     0.0000     8.0000 </r>
       <r>     2.9760     0.0000     8.0000 </r>
      </set>
     </set>
    </array>
   </total>
  </dos>
 </calculation>
 <structure name="finalpos" >
  <crystal>
   <varray name="basis" >
    <v>      10.00000000       0.00000000       0.00000000 </v>
    <v>       0.00000000      10.00000000       0.00000000 </v>
    <v>       0.00000000       0.00000000      10.00000000 </v>
   </varray>
   <i name="volume">   1000.00000000 </i>
   <varray name="rec_basis" >
    <v>       0.10000000       0.00000000       0.00000000 </v>
    <v>       0.00000000       0.10000000       0.00000000 </v>
    <v>       0.00000000       0.00000000       0.10000000 </v>
   </varray>
  </crystal>
  <varray name="positions" >
   <v>       0.50000000       0.50000000       0.50000000 </v>
  </varray>
 </structure>
</modeling>
