   3   3   0   0
  0.3669010E+03  0.1032500E-08  0.1032500E-08  0.1032500E-08  0.5000000E-15
   1.0000000000000000E-004
  CAR 
 unknown system                          
      2.75264670    -10.27114536  301     -6.40741906      1.00000000
    -10.271  0.0000E+00  0.0000E+00
    -10.228  0.0000E+00  0.0000E+00
    -10.184  0.0000E+00  0.0000E+00
    -10.141  0.0000E+00  0.0000E+00
    -10.097  0.0000E+00  0.0000E+00
    -10.054  0.0000E+00  0.0000E+00
    -10.011  0.0000E+00  0.0000E+00
     -9.967  0.0000E+00  0.0000E+00
     -9.924  0.0000E+00  0.0000E+00
     -9.880  0.0000E+00  0.0000E+00
     -9.837  0.0000E+00  0.0000E+00
     -9.794  0.0000E+00  0.0000E+00
     -9.750  0.0000E+00  0.0000E+00
     -9.707  0.0000E+00  0.0000E+00
     -9.663  0.0000E+00  0.0000E+00
     -9.620  0.0000E+00  0.0000E+00
     -9.577  0.0000E+00  0.0000E+00
     -9.533  0.0000E+00  0.0000E+00
     -9.490  0.0000E+00  0.0000E+00
     -9.446  0.2557E-16  0.1110E-17
     -9.403  0.2557E-15  0.1221E-16
     -9.359  0.2936E-14  0.1397E-15
     -9.316  0.3070E-13  0.1473E-14
     -9.273  0.2919E-12  0.1414E-13
     -9.229  0.2527E-11  0.1238E-12
     -9.186  0.1992E-10  0.9886E-12
     -9.142  0.1430E-09  0.7196E-11
     -9.099  0.9347E-09  0.4778E-10
     -9.056  0.5564E-08  0.2893E-09
     -9.012  0.3016E-07  0.1599E-08
     -8.969  0.1489E-06  0.8064E-08
     -8.925  0.6695E-06  0.3713E-07
     -8.882  0.2741E-05  0.1561E-06
     -8.839  0.1022E-04  0.5998E-06
     -8.795  0.3470E-04  0.2106E-05
     -8.752  0.1073E-03  0.6764E-05
     -8.708  0.3022E-03  0.1988E-04
     -8.665  0.7750E-03  0.5353E-04
     -8.621  0.1810E-02  0.1321E-03
     -8.578  0.3850E-02  0.2993E-03
     -8.535  0.7459E-02  0.6231E-03
     -8.491  0.1316E-01  0.1194E-02
     -8.448  0.2115E-01  0.2112E-02
     -8.404  0.3095E-01  0.3456E-02
     -8.361  0.4125E-01  0.5247E-02
     -8.318  0.5006E-01  0.7420E-02
     -8.274  0.5534E-01  0.9823E-02
     -8.231  0.5572E-01  0.1224E-01
     -8.187  0.5109E-01  0.1446E-01
     -8.144  0.4267E-01  0.1631E-01
     -8.101  0.3245E-01  0.1772E-01
     -8.057  0.2248E-01  0.1870E-01
     -8.014  0.1418E-01  0.1931E-01
     -7.970  0.8148E-02  0.1967E-01
     -7.927  0.4269E-02  0.1985E-01
     -7.883  0.2055E-02  0.1994E-01
     -7.840  0.9567E-03  0.1998E-01
     -7.797  0.5668E-03  0.2001E-01
     -7.753  0.7027E-03  0.2004E-01
     -7.710  0.1431E-02  0.2010E-01
     -7.666  0.3059E-02  0.2023E-01
     -7.623  0.6088E-02  0.2050E-01
     -7.580  0.1107E-01  0.2098E-01
     -7.536  0.1833E-01  0.2177E-01
     -7.493  0.2764E-01  0.2297E-01
     -7.449  0.3797E-01  0.2462E-01
     -7.406  0.4750E-01  0.2668E-01
     -7.362  0.5413E-01  0.2903E-01
     -7.319  0.5617E-01  0.3147E-01
     -7.276  0.5309E-01  0.3378E-01
     -7.232  0.4569E-01  0.3576E-01
     -7.189  0.3582E-01  0.3731E-01
     -7.145  0.2557E-01  0.3842E-01
     -7.102  0.1663E-01  0.3915E-01
     -7.059  0.9846E-02  0.3957E-01
     -7.015  0.5310E-02  0.3980E-01
     -6.972  0.2608E-02  0.3992E-01
     -6.928  0.1167E-02  0.3997E-01
     -6.885  0.4753E-03  0.3999E-01
     -6.842  0.1763E-03  0.4000E-01
     -6.798  0.5958E-04  0.4000E-01
     -6.755  0.1833E-04  0.4000E-01
     -6.711  0.5137E-05  0.4000E-01
     -6.668  0.1311E-05  0.4000E-01
     -6.624  0.3047E-06  0.4000E-01
     -6.581  0.6448E-07  0.4000E-01
     -6.538  0.1243E-07  0.4000E-01
     -6.494  0.2181E-08  0.4000E-01
     -6.451  0.3486E-09  0.4000E-01
     -6.407  0.5074E-10  0.4000E-01
     -6.364  0.6725E-11  0.4000E-01
     -6.321  0.8117E-12  0.4000E-01
     -6.277  0.8921E-13  0.4000E-01
     -6.234  0.8907E-14  0.4000E-01
     -6.190  0.8039E-15  0.4000E-01
     -6.147  0.1023E-15  0.4000E-01
     -6.104  0.0000E+00  0.4000E-01
     -6.060  0.0000E+00  0.4000E-01
     -6.017  0.0000E+00  0.4000E-01
     -5.973  0.0000E+00  0.4000E-01
     -5.930  0.0000E+00  0.4000E-01
     -5.886  0.0000E+00  0.4000E-01
     -5.843  0.0000E+00  0.4000E-01
     -5.800  0.0000E+00  0.4000E-01
     -5.756  0.0000E+00  0.4000E-01
     -5.713  0.0000E+00  0.4000E-01
     -5.669  0.0000E+00  0.4000E-01
     -5.626  0.0000E+00  0.4000E-01
     -5.583  0.0000E+00  0.4000E-01
     -5.539  0.0000E+00  0.4000E-01
     -5.496  0.0000E+00  0.4000E-01
     -5.452  0.0000E+00  0.4000E-01
     -5.409  0.0000E+00  0.4000E-01
     -5.366  0.0000E+00  0.4000E-01
     -5.322  0.0000E+00  0.4000E-01
     -5.279  0.0000E+00  0.4000E-01
     -5.235  0.0000E+00  0.4000E-01
     -5.192  0.0000E+00  0.4000E-01
     -5.148  0.0000E+00  0.4000E-01
     -5.105  0.0000E+00  0.4000E-01
     -5.062  0.0000E+00  0.4000E-01
     -5.018  0.0000E+00  0.4000E-01
     -4.975  0.0000E+00  0.4000E-01
     -4.931  0.0000E+00  0.4000E-01
     -4.888  0.0000E+00  0.4000E-01
     -4.845  0.0000E+00  0.4000E-01
     -4.801  0.0000E+00  0.4000E-01
     -4.758  0.0000E+00  0.4000E-01
     -4.714  0.0000E+00  0.4000E-01
     -4.671  0.0000E+00  0.4000E-01
     -4.628  0.0000E+00  0.4000E-01
     -4.584  0.0000E+00  0.4000E-01
     -4.541  0.0000E+00  0.4000E-01
     -4.497  0.0000E+00  0.4000E-01
     -4.454  0.0000E+00  0.4000E-01
     -4.410  0.0000E+00  0.4000E-01
     -4.367  0.0000E+00  0.4000E-01
     -4.324  0.0000E+00  0.4000E-01
     -4.280  0.0000E+00  0.4000E-01
     -4.237  0.0000E+00  0.4000E-01
     -4.193  0.0000E+00  0.4000E-01
     -4.150  0.0000E+00  0.4000E-01
     -4.107  0.0000E+00  0.4000E-01
     -4.063  0.0000E+00  0.4000E-01
     -4.020  0.0000E+00  0.4000E-01
     -3.976  0.0000E+00  0.4000E-01
     -3.933  0.0000E+00  0.4000E-01
     -3.889  0.0000E+00  0.4000E-01
     -3.846  0.0000E+00  0.4000E-01
     -3.803  0.0000E+00  0.4000E-01
     -3.759  0.0000E+00  0.4000E-01
     -3.716  0.0000E+00  0.4000E-01
     -3.672  0.0000E+00  0.4000E-01
     -3.629  0.0000E+00  0.4000E-01
     -3.586  0.0000E+00  0.4000E-01
     -3.542  0.0000E+00  0.4000E-01
     -3.499  0.0000E+00  0.4000E-01
     -3.455  0.0000E+00  0.4000E-01
     -3.412  0.0000E+00  0.4000E-01
     -3.369  0.0000E+00  0.4000E-01
     -3.325  0.0000E+00  0.4000E-01
     -3.282  0.0000E+00  0.4000E-01
     -3.238  0.0000E+00  0.4000E-01
     -3.195  0.0000E+00  0.4000E-01
     -3.151  0.0000E+00  0.4000E-01
     -3.108  0.0000E+00  0.4000E-01
     -3.065  0.0000E+00  0.4000E-01
     -3.021  0.0000E+00  0.4000E-01
     -2.978  0.0000E+00  0.4000E-01
     -2.934  0.0000E+00  0.4000E-01
     -2.891  0.0000E+00  0.4000E-01
     -2.848  0.0000E+00  0.4000E-01
     -2.804  0.0000E+00  0.4000E-01
     -2.761  0.0000E+00  0.4000E-01
     -2.717  0.0000E+00  0.4000E-01
     -2.674  0.9137E-16  0.4000E-01
     -2.631  0.9843E-15  0.4000E-01
     -2.587  0.1100E-13  0.4000E-01
     -2.544  0.1114E-12  0.4000E-01
     -2.500  0.1029E-11  0.4000E-01
     -2.457  0.8649E-11  0.4000E-01
     -2.413  0.6625E-10  0.4000E-01
     -2.370  0.4624E-09  0.4000E-01
     -2.327  0.2939E-08  0.4000E-01
     -2.283  0.1702E-07  0.4000E-01
     -2.240  0.8983E-07  0.4000E-01
     -2.196  0.4318E-06  0.4000E-01
     -2.153  0.1891E-05  0.4000E-01
     -2.110  0.7547E-05  0.4000E-01
     -2.066  0.2744E-04  0.4000E-01
     -2.023  0.9087E-04  0.4001E-01
     -1.979  0.2742E-03  0.4002E-01
     -1.936  0.7540E-03  0.4005E-01
     -1.893  0.1889E-02  0.4013E-01
     -1.849  0.4311E-02  0.4032E-01
     -1.806  0.8965E-02  0.4071E-01
     -1.762  0.1699E-01  0.4145E-01
     -1.719  0.2933E-01  0.4272E-01
     -1.675  0.4613E-01  0.4472E-01
     -1.632  0.6612E-01  0.4759E-01
     -1.589  0.8636E-01  0.5134E-01
     -1.545  0.1028E+00  0.5580E-01
     -1.502  0.1114E+00  0.6064E-01
     -1.458  0.1101E+00  0.6542E-01
     -1.415  0.9907E-01  0.6972E-01
     -1.372  0.8126E-01  0.7325E-01
     -1.328  0.6072E-01  0.7588E-01
     -1.285  0.4135E-01  0.7768E-01
     -1.241  0.2565E-01  0.7879E-01
     -1.198  0.1450E-01  0.7942E-01
     -1.154  0.7468E-02  0.7974E-01
     -1.111  0.3505E-02  0.7990E-01
     -1.068  0.1499E-02  0.7996E-01
     -1.024  0.5838E-03  0.7999E-01
     -0.981  0.2072E-03  0.8000E-01
     -0.937  0.6701E-04  0.8000E-01
     -0.894  0.1975E-04  0.8000E-01
     -0.851  0.5312E-05  0.8000E-01
     -0.807  0.1348E-05  0.8000E-01
     -0.764  0.4996E-06  0.8000E-01
     -0.720  0.8402E-06  0.8000E-01
     -0.677  0.2668E-05  0.8000E-01
     -0.634  0.8295E-05  0.8000E-01
     -0.590  0.2378E-04  0.8000E-01
     -0.547  0.6275E-04  0.8000E-01
     -0.503  0.1525E-03  0.8001E-01
     -0.460  0.3422E-03  0.8003E-01
     -0.416  0.7101E-03  0.8006E-01
     -0.373  0.1366E-02  0.8012E-01
     -0.330  0.2444E-02  0.8022E-01
     -0.286  0.4080E-02  0.8040E-01
     -0.243  0.6379E-02  0.8068E-01
     -0.199  0.9381E-02  0.8108E-01
     -0.156  0.1304E-01  0.8165E-01
     -0.113  0.1720E-01  0.8240E-01
     -0.069  0.2166E-01  0.8334E-01
     -0.026  0.2615E-01  0.8447E-01
      0.018  0.3040E-01  0.8579E-01
      0.061  0.3420E-01  0.8728E-01
      0.104  0.3739E-01  0.8890E-01
      0.148  0.3993E-01  0.9063E-01
      0.191  0.4189E-01  0.9245E-01
      0.235  0.4345E-01  0.9434E-01
      0.278  0.4485E-01  0.9629E-01
      0.322  0.4632E-01  0.9830E-01
      0.365  0.4799E-01  0.1004E+00
      0.408  0.4981E-01  0.1025E+00
      0.452  0.5148E-01  0.1048E+00
      0.495  0.5251E-01  0.1071E+00
      0.539  0.5231E-01  0.1093E+00
      0.582  0.5036E-01  0.1115E+00
      0.625  0.4643E-01  0.1135E+00
      0.669  0.4065E-01  0.1153E+00
      0.712  0.3359E-01  0.1168E+00
      0.756  0.2604E-01  0.1179E+00
      0.799  0.1887E-01  0.1187E+00
      0.842  0.1272E-01  0.1193E+00
      0.886  0.7963E-02  0.1196E+00
      0.929  0.4614E-02  0.1198E+00
      0.973  0.2471E-02  0.1199E+00
      1.016  0.1221E-02  0.1200E+00
      1.060  0.5558E-03  0.1200E+00
      1.103  0.2329E-03  0.1200E+00
      1.146  0.8976E-04  0.1200E+00
      1.190  0.3180E-04  0.1200E+00
      1.233  0.1035E-04  0.1200E+00
      1.277  0.3094E-05  0.1200E+00
      1.320  0.8491E-06  0.1200E+00
      1.363  0.2139E-06  0.1200E+00
      1.407  0.4946E-07  0.1200E+00
      1.450  0.1049E-07  0.1200E+00
      1.494  0.2043E-08  0.1200E+00
      1.537  0.3649E-09  0.1200E+00
      1.581  0.5979E-10  0.1200E+00
      1.624  0.8986E-11  0.1200E+00
      1.667  0.1239E-11  0.1200E+00
      1.711  0.1566E-12  0.1200E+00
      1.754  0.1814E-13  0.1200E+00
      1.798  0.1927E-14  0.1200E+00
      1.841  0.1880E-15  0.1200E+00
      1.884  0.1491E-16  0.1200E+00
      1.928  0.9699E-18  0.1200E+00
      1.971  0.0000E+00  0.1200E+00
      2.015  0.0000E+00  0.1200E+00
      2.058  0.0000E+00  0.1200E+00
      2.101  0.0000E+00  0.1200E+00
      2.145  0.0000E+00  0.1200E+00
      2.188  0.0000E+00  0.1200E+00
      2.232  0.0000E+00  0.1200E+00
      2.275  0.0000E+00  0.1200E+00
      2.319  0.0000E+00  0.1200E+00
      2.362  0.0000E+00  0.1200E+00
      2.405  0.0000E+00  0.1200E+00
      2.449  0.0000E+00  0.1200E+00
      2.492  0.0000E+00  0.1200E+00
      2.536  0.0000E+00  0.1200E+00
      2.579  0.0000E+00  0.1200E+00
      2.622  0.0000E+00  0.1200E+00
      2.666  0.0000E+00  0.1200E+00
      2.709  0.0000E+00  0.1200E+00
      2.753  0.0000E+00  0.1200E+00
