    3    3  100    1
  0.3669010E+03  0.1032500E-08  0.1032500E-08  0.1032500E-08  0.5000000E-15
   1.0000000000000000E-004
  CAR 
 unknown system                          
      4    288      6

  0.1262379E-14  0.1262379E-14  0.1262379E-14  0.2962963E-03
    1       -8.271145   1.000000
    2       -7.345181   1.000000
    3       -1.496464   0.000000
    4       -1.496464   0.000000
    5       -0.204082   0.000000
    6        0.651135   0.000000

  0.6666667E-01  0.1262379E-14  0.1262379E-14  0.5925926E-03
    1       -8.271121   1.000000
    2       -7.345180   1.000000
    3       -1.496320   0.000000
    4       -1.496320   0.000000
    5       -0.198574   0.000000
    6        0.632375   0.000000

  0.1262379E-14  0.6666667E-01  0.1262379E-14  0.1185185E-02
    1       -8.271132   1.000000
    2       -7.345156   1.000000
    3       -1.497812   0.000000
    4       -1.496348   0.000000
    5       -0.195930   0.000000
    6        0.653901   0.000000

  0.1333333E+00  0.1262379E-14  0.1262379E-14  0.5925926E-03
    1       -8.271107   1.000000
    2       -7.345222   1.000000
    3       -1.495922   0.000000
    4       -1.495922   0.000000
    5       -0.182125   0.000000
    6        0.580582   0.000000

  0.1262379E-14  0.1333333E+00  0.1262379E-14  0.1185185E-02
    1       -8.271129   1.000000
    2       -7.345159   1.000000
    3       -1.501594   0.000000
    4       -1.496023   0.000000
    5       -0.171879   0.000000
    6        0.661661   0.000000

  0.2000000E+00  0.1262379E-14  0.1262379E-14  0.5925926E-03
    1       -8.271066   1.000000
    2       -7.345262   1.000000
    3       -1.495332   0.000000
    4       -1.495332   0.000000
    5       -0.154963   0.000000
    6        0.506339   0.000000

  0.1262379E-14  0.2000000E+00  0.1262379E-14  0.1185185E-02
    1       -8.271109   1.000000
    2       -7.345152   1.000000
    3       -1.507076   0.000000
    4       -1.495543   0.000000
    5       -0.133116   0.000000
    6        0.672304   0.000000

  0.2666667E+00  0.1262379E-14  0.1262379E-14  0.5925926E-03
    1       -8.271043   1.000000
    2       -7.345324   1.000000
    3       -1.494655   0.000000
    4       -1.494655   0.000000
    5       -0.117567   0.000000
    6        0.420764   0.000000

  0.1262379E-14  0.2666667E+00  0.1262379E-14  0.1185185E-02
    1       -8.271107   1.000000
    2       -7.345143   1.000000
    3       -1.513252   0.000000
    4       -1.494994   0.000000
    5       -0.081696   0.000000
    6        0.673447   0.000000

  0.3333333E+00  0.1262379E-14  0.1262379E-14  0.5925926E-03
    1       -8.271013   1.000000
    2       -7.345383   1.000000
    3       -1.494006   0.000000
    4       -1.494006   0.000000
    5       -0.070944   0.000000
    6        0.332692   0.000000

  0.1262379E-14  0.3333333E+00  0.1262379E-14  0.1185185E-02
    1       -8.271101   1.000000
    2       -7.345149   1.000000
    3       -1.519041   0.000000
    4       -1.494466   0.000000
    5       -0.021064   0.000000
    6        0.592185   0.000000

  0.4000000E+00  0.1262379E-14  0.1262379E-14  0.5925926E-03
    1       -8.270992   1.000000
    2       -7.345435   1.000000
    3       -1.493499   0.000000
    4       -1.493499   0.000000
    5       -0.017781   0.000000
    6        0.249682   0.000000

  0.1262379E-14  0.4000000E+00  0.1262379E-14  0.1185185E-02
    1       -8.271094   1.000000
    2       -7.345155   1.000000
    3       -1.523487   0.000000
    4       -1.494055   0.000000
    5        0.041739   0.000000
    6        0.491901   0.000000

  0.4666667E+00  0.1262379E-14  0.1262379E-14  0.5925926E-03
    1       -8.270983   1.000000
    2       -7.345438   1.000000
    3       -1.493220   0.000000
    4       -1.493220   0.000000
    5        0.030751   0.000000
    6        0.185624   0.000000

  0.1262379E-14  0.4666667E+00  0.1262379E-14  0.1185185E-02
    1       -8.271092   1.000000
    2       -7.345136   1.000000
    3       -1.525894   0.000000
    4       -1.493828   0.000000
    5        0.088978   0.000000
    6        0.424853   0.000000

  0.6666667E-01  0.6666667E-01  0.1262379E-14  0.2370370E-02
    1       -8.271124   1.000000
    2       -7.345177   1.000000
    3       -1.497666   0.000000
    4       -1.496207   0.000000
    5       -0.190434   0.000000
    6        0.635593   0.000000

  0.1262379E-14  0.6666667E-01  0.6666667E-01  0.1185185E-02
    1       -8.271130   1.000000
    2       -7.345159   1.000000
    3       -1.497838   0.000000
    4       -1.497547   0.000000
    5       -0.187781   0.000000
    6        0.656634   0.000000

  0.1333333E+00  0.6666667E-01  0.1262379E-14  0.2370370E-02
    1       -8.271107   1.000000
    2       -7.345214   1.000000
    3       -1.497253   0.000000
    4       -1.495809   0.000000
    5       -0.174013   0.000000
    6        0.584745   0.000000

  0.1262379E-14  0.1333333E+00  0.6666667E-01  0.2370370E-02
    1       -8.271128   1.000000
    2       -7.345157   1.000000
    3       -1.501478   0.000000
    4       -1.497337   0.000000
    5       -0.163729   0.000000
    6        0.664297   0.000000

  0.6666667E-01  0.1262379E-14  0.1333333E+00  0.2370370E-02
    1       -8.271123   1.000000
    2       -7.345171   1.000000
    3       -1.501434   0.000000
    4       -1.495883   0.000000
    5       -0.166411   0.000000
    6        0.644757   0.000000

  0.2000000E+00  0.6666667E-01  0.1262379E-14  0.2370370E-02
    1       -8.271072   1.000000
    2       -7.345262   1.000000
    3       -1.496642   0.000000
    4       -1.495221   0.000000
    5       -0.146893   0.000000
    6        0.511347   0.000000

  0.1262379E-14  0.2000000E+00  0.6666667E-01  0.2370370E-02
    1       -8.271111   1.000000
    2       -7.345147   1.000000
    3       -1.506935   0.000000
    4       -1.496844   0.000000
    5       -0.124956   0.000000
    6        0.674759   0.000000

  0.6666667E-01  0.1262379E-14  0.2000000E+00  0.2370370E-02
    1       -8.271106   1.000000
    2       -7.345164   1.000000
    3       -1.506896   0.000000
    4       -1.495406   0.000000
    5       -0.127693   0.000000
    6        0.658036   0.000000

  0.2666667E+00  0.6666667E-01  0.1262379E-14  0.2370370E-02
    1       -8.271041   1.000000
    2       -7.345321   1.000000
    3       -1.495941   0.000000
    4       -1.494544   0.000000
    5       -0.109539   0.000000
    6        0.426347   0.000000

  0.1262379E-14  0.2666667E+00  0.6666667E-01  0.2370370E-02
    1       -8.271103   1.000000
    2       -7.345146   1.000000
    3       -1.513087   0.000000
    4       -1.496274   0.000000
    5       -0.073496   0.000000
    6        0.675996   0.000000

  0.6666667E-01  0.1262379E-14  0.2666667E+00  0.2370370E-02
    1       -8.271099   1.000000
    2       -7.345163   1.000000
    3       -1.513051   0.000000
    4       -1.494856   0.000000
    5       -0.076324   0.000000
    6        0.666910   0.000000

  0.3333333E+00  0.6666667E-01  0.1262379E-14  0.2370370E-02
    1       -8.271009   1.000000
    2       -7.345383   1.000000
    3       -1.495267   0.000000
    4       -1.493897   0.000000
    5       -0.062934   0.000000
    6        0.338603   0.000000

  0.1262379E-14  0.3333333E+00  0.6666667E-01  0.2370370E-02
    1       -8.271097   1.000000
    2       -7.345149   1.000000
    3       -1.518855   0.000000
    4       -1.495729   0.000000
    5       -0.012758   0.000000
    6        0.597050   0.000000

  0.6666667E-01  0.1262379E-14  0.3333333E+00  0.2370370E-02
    1       -8.271092   1.000000
    2       -7.345163   1.000000
    3       -1.518821   0.000000
    4       -1.494331   0.000000
    5       -0.015740   0.000000
    6        0.596524   0.000000

  0.4000000E+00  0.6666667E-01  0.1262379E-14  0.2370370E-02
    1       -8.270986   1.000000
    2       -7.345434   1.000000
    3       -1.494742   0.000000
    4       -1.493391   0.000000
    5       -0.009692   0.000000
    6        0.255683   0.000000

  0.1262379E-14  0.4000000E+00  0.6666667E-01  0.2370370E-02
    1       -8.271087   1.000000
    2       -7.345149   1.000000
    3       -1.523285   0.000000
    4       -1.495301   0.000000
    5        0.050284   0.000000
    6        0.496874   0.000000

  0.6666667E-01  0.1262379E-14  0.4000000E+00  0.2370370E-02
    1       -8.271089   1.000000
    2       -7.345160   1.000000
    3       -1.523254   0.000000
    4       -1.493921   0.000000
    5        0.047037   0.000000
    6        0.496293   0.000000

  0.4666667E+00  0.6666667E-01  0.1262379E-14  0.2370370E-02
    1       -8.270973   1.000000
    2       -7.345457   1.000000
    3       -1.494453   0.000000
    4       -1.493114   0.000000
    5        0.039194   0.000000
    6        0.191346   0.000000

  0.1262379E-14  0.4666667E+00  0.6666667E-01  0.2370370E-02
    1       -8.271090   1.000000
    2       -7.345147   1.000000
    3       -1.525685   0.000000
    4       -1.495067   0.000000
    5        0.097892   0.000000
    6        0.429524   0.000000

  0.6666667E-01  0.1262379E-14  0.4666667E+00  0.2370370E-02
    1       -8.271089   1.000000
    2       -7.345153   1.000000
    3       -1.525652   0.000000
    4       -1.493696   0.000000
    5        0.094293   0.000000
    6        0.429175   0.000000

  0.1333333E+00  0.1333333E+00  0.1262379E-14  0.2370370E-02
    1       -8.271102   1.000000
    2       -7.345208   1.000000
    3       -1.500980   0.000000
    4       -1.495489   0.000000
    5       -0.150072   0.000000
    6        0.596836   0.000000

  0.1262379E-14  0.1333333E+00  0.1333333E+00  0.1185185E-02
    1       -8.271119   1.000000
    2       -7.345154   1.000000
    3       -1.501560   0.000000
    4       -1.500607   0.000000
    5       -0.139668   0.000000
    6        0.671659   0.000000

  0.2000000E+00  0.1333333E+00  0.1262379E-14  0.2370370E-02
    1       -8.271073   1.000000
    2       -7.345256   1.000000
    3       -1.500312   0.000000
    4       -1.494905   0.000000
    5       -0.123073   0.000000
    6        0.526071   0.000000

  0.1262379E-14  0.2000000E+00  0.1333333E+00  0.2370370E-02
    1       -8.271108   1.000000
    2       -7.345151   1.000000
    3       -1.506556   0.000000
    4       -1.500469   0.000000
    5       -0.100858   0.000000
    6        0.681581   0.000000

  0.1333333E+00  0.1262379E-14  0.2000000E+00  0.2370370E-02
    1       -8.271092   1.000000
    2       -7.345200   1.000000
    3       -1.506388   0.000000
    4       -1.495015   0.000000
    5       -0.111480   0.000000
    6        0.615518   0.000000

  0.2666667E+00  0.1333333E+00  0.1262379E-14  0.2370370E-02
    1       -8.271038   1.000000
    2       -7.345319   1.000000
    3       -1.499543   0.000000
    4       -1.494234   0.000000
    5       -0.085849   0.000000
    6        0.442860   0.000000

  0.1262379E-14  0.2666667E+00  0.1333333E+00  0.2370370E-02
    1       -8.271104   1.000000
    2       -7.345147   1.000000
    3       -1.512626   0.000000
    4       -1.499863   0.000000
    5       -0.049281   0.000000
    6        0.683025   0.000000

  0.1333333E+00  0.1262379E-14  0.2666667E+00  0.2370370E-02
    1       -8.271080   1.000000
    2       -7.345208   1.000000
    3       -1.512483   0.000000
    4       -1.494471   0.000000
    5       -0.060264   0.000000
    6        0.637347   0.000000

  0.3333333E+00  0.1333333E+00  0.1262379E-14  0.2370370E-02
    1       -8.271008   1.000000
    2       -7.345390   1.000000
    3       -1.498808   0.000000
    4       -1.493591   0.000000
    5       -0.039308   0.000000
    6        0.356162   0.000000

  0.1262379E-14  0.3333333E+00  0.1333333E+00  0.2370370E-02
    1       -8.271097   1.000000
    2       -7.345151   1.000000
    3       -1.518331   0.000000
    4       -1.499269   0.000000
    5        0.011759   0.000000
    6        0.611203   0.000000

  0.1333333E+00  0.1262379E-14  0.3333333E+00  0.2370370E-02
    1       -8.271076   1.000000
    2       -7.345211   1.000000
    3       -1.518200   0.000000
    4       -1.493951   0.000000
    5        0.000172   0.000000
    6        0.609185   0.000000

  0.4000000E+00  0.1333333E+00  0.1262379E-14  0.2370370E-02
    1       -8.270976   1.000000
    2       -7.345433   1.000000
    3       -1.498231   0.000000
    4       -1.493089   0.000000
    5        0.014140   0.000000
    6        0.273576   0.000000

  0.1262379E-14  0.4000000E+00  0.1333333E+00  0.2370370E-02
    1       -8.271084   1.000000
    2       -7.345139   1.000000
    3       -1.522716   0.000000
    4       -1.498801   0.000000
    5        0.075487   0.000000
    6        0.511688   0.000000

  0.1333333E+00  0.1262379E-14  0.4000000E+00  0.2370370E-02
    1       -8.271069   1.000000
    2       -7.345189   1.000000
    3       -1.522591   0.000000
    4       -1.493545   0.000000
    5        0.062865   0.000000
    6        0.509451   0.000000

  0.4666667E+00  0.1333333E+00  0.1262379E-14  0.2370370E-02
    1       -8.270966   1.000000
    2       -7.345459   1.000000
    3       -1.497915   0.000000
    4       -1.492814   0.000000
    5        0.064043   0.000000
    6        0.208459   0.000000

  0.1262379E-14  0.4666667E+00  0.1333333E+00  0.2370370E-02
    1       -8.271079   1.000000
    2       -7.345143   1.000000
    3       -1.525092   0.000000
    4       -1.498545   0.000000
    5        0.124172   0.000000
    6        0.443545   0.000000

  0.1333333E+00  0.1262379E-14  0.4666667E+00  0.2370370E-02
    1       -8.271069   1.000000
    2       -7.345182   1.000000
    3       -1.524969   0.000000
    4       -1.493321   0.000000
    5        0.110155   0.000000
    6        0.442148   0.000000

  0.2000000E+00  0.2000000E+00  0.1262379E-14  0.2370370E-02
    1       -8.271064   1.000000
    2       -7.345257   1.000000
    3       -1.505640   0.000000
    4       -1.494438   0.000000
    5       -0.084672   0.000000
    6        0.549515   0.000000

  0.1262379E-14  0.2000000E+00  0.2000000E+00  0.1185185E-02
    1       -8.271102   1.000000
    2       -7.345150   1.000000
    3       -1.506628   0.000000
    4       -1.505101   0.000000
    5       -0.061958   0.000000
    6        0.690600   0.000000

  0.2666667E+00  0.2000000E+00  0.1262379E-14  0.2370370E-02
    1       -8.271037   1.000000
    2       -7.345335   1.000000
    3       -1.504779   0.000000
    4       -1.493776   0.000000
    5       -0.047664   0.000000
    6        0.469525   0.000000

  0.1262379E-14  0.2666667E+00  0.2000000E+00  0.2370370E-02
    1       -8.271100   1.000000
    2       -7.345161   1.000000
    3       -1.511971   0.000000
    4       -1.505049   0.000000
    5       -0.010180   0.000000
    6        0.692221   0.000000

  0.2000000E+00  0.1262379E-14  0.2666667E+00  0.2370370E-02
    1       -8.271062   1.000000
    2       -7.345268   1.000000
    3       -1.511646   0.000000
    4       -1.493903   0.000000
    5       -0.033698   0.000000
    6        0.579666   0.000000

  0.3333333E+00  0.2000000E+00  0.1262379E-14  0.2370370E-02
    1       -8.271007   1.000000
    2       -7.345392   1.000000
    3       -1.503953   0.000000
    4       -1.493141   0.000000
    5       -0.001264   0.000000
    6        0.384770   0.000000

  0.1262379E-14  0.3333333E+00  0.2000000E+00  0.2370370E-02
    1       -8.271098   1.000000
    2       -7.345145   1.000000
    3       -1.517560   0.000000
    4       -1.504411   0.000000
    5        0.051320   0.000000
    6        0.632725   0.000000

  0.2000000E+00  0.1262379E-14  0.3333333E+00  0.2370370E-02
    1       -8.271054   1.000000
    2       -7.345265   1.000000
    3       -1.517281   0.000000
    4       -1.493391   0.000000
    5        0.026488   0.000000
    6        0.611361   0.000000

  0.4000000E+00  0.2000000E+00  0.1262379E-14  0.2370370E-02
    1       -8.270973   1.000000
    2       -7.345429   1.000000
    3       -1.503306   0.000000
    4       -1.492643   0.000000
    5        0.052420   0.000000
    6        0.302952   0.000000

  0.1262379E-14  0.4000000E+00  0.2000000E+00  0.2370370E-02
    1       -8.271082   1.000000
    2       -7.345131   1.000000
    3       -1.521876   0.000000
    4       -1.503891   0.000000
    5        0.116074   0.000000
    6        0.535874   0.000000

  0.2000000E+00  0.1262379E-14  0.4000000E+00  0.2370370E-02
    1       -8.271039   1.000000
    2       -7.345255   1.000000
    3       -1.521614   0.000000
    4       -1.492989   0.000000
    5        0.089011   0.000000
    6        0.531282   0.000000

  0.4666667E+00  0.2000000E+00  0.1262379E-14  0.2370370E-02
    1       -8.270963   1.000000
    2       -7.345458   1.000000
    3       -1.502952   0.000000
    4       -1.492372   0.000000
    5        0.103853   0.000000
    6        0.236754   0.000000

  0.1262379E-14  0.4666667E+00  0.2000000E+00  0.2370370E-02
    1       -8.271079   1.000000
    2       -7.345133   1.000000
    3       -1.524217   0.000000
    4       -1.503604   0.000000
    5        0.166437   0.000000
    6        0.466905   0.000000

  0.2000000E+00  0.1262379E-14  0.4666667E+00  0.2370370E-02
    1       -8.271037   1.000000
    2       -7.345244   1.000000
    3       -1.523960   0.000000
    4       -1.492769   0.000000
    5        0.136306   0.000000
    6        0.463758   0.000000

  0.2666667E+00  0.2666667E+00  0.1262379E-14  0.2370370E-02
    1       -8.271029   1.000000
    2       -7.345321   1.000000
    3       -1.510681   0.000000
    4       -1.493249   0.000000
    5        0.003015   0.000000
    6        0.504719   0.000000

  0.1262379E-14  0.2666667E+00  0.2666667E+00  0.1185185E-02
    1       -8.271093   1.000000
    2       -7.345146   1.000000
    3       -1.511871   0.000000
    4       -1.510244   0.000000
    5        0.041923   0.000000
    6        0.695505   0.000000

  0.3333333E+00  0.2666667E+00  0.1262379E-14  0.2370370E-02
    1       -8.270996   1.000000
    2       -7.345384   1.000000
    3       -1.509757   0.000000
    4       -1.492623   0.000000
    5        0.049162   0.000000
    6        0.423099   0.000000

  0.1262379E-14  0.3333333E+00  0.2666667E+00  0.2370370E-02
    1       -8.271082   1.000000
    2       -7.345141   1.000000
    3       -1.516692   0.000000
    4       -1.510194   0.000000
    5        0.103998   0.000000
    6        0.655425   0.000000

  0.2666667E+00  0.1262379E-14  0.3333333E+00  0.2370370E-02
    1       -8.271021   1.000000
    2       -7.345321   1.000000
    3       -1.516225   0.000000
    4       -1.492745   0.000000
    5        0.062857   0.000000
    6        0.545197   0.000000

  0.4000000E+00  0.2666667E+00  0.1262379E-14  0.2370370E-02
    1       -8.270972   1.000000
    2       -7.345429   1.000000
    3       -1.509034   0.000000
    4       -1.492132   0.000000
    5        0.102959   0.000000
    6        0.342822   0.000000

  0.1262379E-14  0.4000000E+00  0.2666667E+00  0.2370370E-02
    1       -8.271075   1.000000
    2       -7.345139   1.000000
    3       -1.520912   0.000000
    4       -1.509636   0.000000
    5        0.169926   0.000000
    6        0.567869   0.000000

  0.2666667E+00  0.1262379E-14  0.4000000E+00  0.2370370E-02
    1       -8.271013   1.000000
    2       -7.345320   1.000000
    3       -1.520489   0.000000
    4       -1.492350   0.000000
    5        0.125077   0.000000
    6        0.560966   0.000000

  0.4666667E+00  0.2666667E+00  0.1262379E-14  0.2370370E-02
    1       -8.270965   1.000000
    2       -7.345467   1.000000
    3       -1.508638   0.000000
    4       -1.491864   0.000000
    5        0.156103   0.000000
    6        0.275669   0.000000

  0.1262379E-14  0.4666667E+00  0.2666667E+00  0.2370370E-02
    1       -8.271080   1.000000
    2       -7.345147   1.000000
    3       -1.523211   0.000000
    4       -1.509318   0.000000
    5        0.222291   0.000000
    6        0.499437   0.000000

  0.2666667E+00  0.1262379E-14  0.4666667E+00  0.2370370E-02
    1       -8.271018   1.000000
    2       -7.345323   1.000000
    3       -1.522798   0.000000
    4       -1.492134   0.000000
    5        0.172259   0.000000
    6        0.493875   0.000000

  0.3333333E+00  0.3333333E+00  0.1262379E-14  0.2370370E-02
    1       -8.270994   1.000000
    2       -7.345381   1.000000
    3       -1.515211   0.000000
    4       -1.492126   0.000000
    5        0.108617   0.000000
    6        0.468299   0.000000

  0.1262379E-14  0.3333333E+00  0.3333333E+00  0.1185185E-02
    1       -8.271075   1.000000
    2       -7.345147   1.000000
    3       -1.516348   0.000000
    4       -1.515142   0.000000
    5        0.166776   0.000000
    6        0.656398   0.000000

  0.4000000E+00  0.3333333E+00  0.1262379E-14  0.2370370E-02
    1       -8.270963   1.000000
    2       -7.345424   1.000000
    3       -1.514417   0.000000
    4       -1.491640   0.000000
    5        0.162233   0.000000
    6        0.390861   0.000000

  0.1262379E-14  0.4000000E+00  0.3333333E+00  0.2370370E-02
    1       -8.271064   1.000000
    2       -7.345139   1.000000
    3       -1.519993   0.000000
    4       -1.515031   0.000000
    5        0.233746   0.000000
    6        0.601755   0.000000

  0.3333333E+00  0.1262379E-14  0.4000000E+00  0.2370370E-02
    1       -8.270985   1.000000
    2       -7.345378   1.000000
    3       -1.519410   0.000000
    4       -1.491737   0.000000
    5        0.170363   0.000000
    6        0.513822   0.000000

  0.4666667E+00  0.3333333E+00  0.1262379E-14  0.2370370E-02
    1       -8.270952   1.000000
    2       -7.345457   1.000000
    3       -1.513983   0.000000
    4       -1.491375   0.000000
    5        0.216661   0.000000
    6        0.323678   0.000000

  0.1262379E-14  0.4666667E+00  0.3333333E+00  0.2370370E-02
    1       -8.271058   1.000000
    2       -7.345148   1.000000
    3       -1.522246   0.000000
    4       -1.514688   0.000000
    5        0.287787   0.000000
    6        0.540315   0.000000

  0.3333333E+00  0.1262379E-14  0.4666667E+00  0.2370370E-02
    1       -8.270981   1.000000
    2       -7.345381   1.000000
    3       -1.521684   0.000000
    4       -1.491524   0.000000
    5        0.217183   0.000000
    6        0.530991   0.000000

  0.4000000E+00  0.4000000E+00  0.1262379E-14  0.2370370E-02
    1       -8.270965   1.000000
    2       -7.345441   1.000000
    3       -1.518565   0.000000
    4       -1.491257   0.000000
    5        0.223378   0.000000
    6        0.441364   0.000000

  0.1262379E-14  0.4000000E+00  0.4000000E+00  0.1185185E-02
    1       -8.271061   1.000000
    2       -7.345154   1.000000
    3       -1.519503   0.000000
    4       -1.518955   0.000000
    5        0.301276   0.000000
    6        0.614062   0.000000

  0.4666667E+00  0.4000000E+00  0.1262379E-14  0.2370370E-02
    1       -8.270949   1.000000
    2       -7.345459   1.000000
    3       -1.518101   0.000000
    4       -1.490994   0.000000
    5        0.277773   0.000000
    6        0.376279   0.000000

  0.1262379E-14  0.4666667E+00  0.4000000E+00  0.2370370E-02
    1       -8.271048   1.000000
    2       -7.345156   1.000000
    3       -1.521490   0.000000
    4       -1.518824   0.000000
    5        0.355233   0.000000
    6        0.585907   0.000000

  0.4000000E+00  0.1262379E-14  0.4666667E+00  0.2370370E-02
    1       -8.270961   1.000000
    2       -7.345432   1.000000
    3       -1.520812   0.000000
    4       -1.491047   0.000000
    5        0.269372   0.000000
    6        0.480320   0.000000

  0.4666667E+00  0.4666667E+00  0.1262379E-14  0.2370370E-02
    1       -8.270953   1.000000
    2       -7.345460   1.000000
    3       -1.520333   0.000000
    4       -1.490785   0.000000
    5        0.322137   0.000000
    6        0.419238   0.000000

  0.1262379E-14  0.4666667E+00  0.4666667E+00  0.1185185E-02
    1       -8.271043   1.000000
    2       -7.345167   1.000000
    3       -1.521107   0.000000
    4       -1.521039   0.000000
    5        0.405918   0.000000
    6        0.620841   0.000000

  0.6666667E-01  0.6666667E-01  0.6666667E-01  0.2370370E-02
    1       -8.271124   1.000000
    2       -7.345176   1.000000
    3       -1.497691   0.000000
    4       -1.497402   0.000000
    5       -0.182294   0.000000
    6        0.638780   0.000000

  0.1333333E+00  0.6666667E-01  0.6666667E-01  0.2370370E-02
    1       -8.271106   1.000000
    2       -7.345205   1.000000
    3       -1.497275   0.000000
    4       -1.496994   0.000000
    5       -0.165902   0.000000
    6        0.588883   0.000000

  0.6666667E-01  0.1333333E+00  0.6666667E-01  0.4740741E-02
    1       -8.271119   1.000000
    2       -7.345164   1.000000
    3       -1.501317   0.000000
    4       -1.497193   0.000000
    5       -0.158271   0.000000
    6        0.647840   0.000000

  0.2000000E+00  0.6666667E-01  0.6666667E-01  0.2370370E-02
    1       -8.271075   1.000000
    2       -7.345258   1.000000
    3       -1.496660   0.000000
    4       -1.496392   0.000000
    5       -0.138823   0.000000
    6        0.516346   0.000000

  0.6666667E-01  0.2000000E+00  0.6666667E-01  0.4740741E-02
    1       -8.271108   1.000000
    2       -7.345161   1.000000
    3       -1.506756   0.000000
    4       -1.496702   0.000000
    5       -0.119542   0.000000
    6        0.660918   0.000000

  0.2666667E+00  0.6666667E-01  0.6666667E-01  0.2370370E-02
    1       -8.271042   1.000000
    2       -7.345319   1.000000
    3       -1.495953   0.000000
    4       -1.495699   0.000000
    5       -0.101512   0.000000
    6        0.431930   0.000000

  0.6666667E-01  0.2666667E+00  0.6666667E-01  0.4740741E-02
    1       -8.271099   1.000000
    2       -7.345164   1.000000
    3       -1.512887   0.000000
    4       -1.496134   0.000000
    5       -0.068135   0.000000
    6        0.669549   0.000000

  0.3333333E+00  0.6666667E-01  0.6666667E-01  0.2370370E-02
    1       -8.271010   1.000000
    2       -7.345388   1.000000
    3       -1.495275   0.000000
    4       -1.495035   0.000000
    5       -0.054926   0.000000
    6        0.344522   0.000000

  0.6666667E-01  0.3333333E+00  0.6666667E-01  0.4740741E-02
    1       -8.271094   1.000000
    2       -7.345169   1.000000
    3       -1.518637   0.000000
    4       -1.495590   0.000000
    5       -0.007446   0.000000
    6        0.601370   0.000000

  0.4000000E+00  0.6666667E-01  0.6666667E-01  0.2370370E-02
    1       -8.270986   1.000000
    2       -7.345434   1.000000
    3       -1.494746   0.000000
    4       -1.494516   0.000000
    5       -0.001604   0.000000
    6        0.261695   0.000000

  0.6666667E-01  0.4000000E+00  0.6666667E-01  0.4740741E-02
    1       -8.271085   1.000000
    2       -7.345164   1.000000
    3       -1.523053   0.000000
    4       -1.495164   0.000000
    5        0.055571   0.000000
    6        0.501285   0.000000

  0.4666667E+00  0.6666667E-01  0.6666667E-01  0.2370370E-02
    1       -8.270967   1.000000
    2       -7.345456   1.000000
    3       -1.494455   0.000000
    4       -1.494231   0.000000
    5        0.047643   0.000000
    6        0.197073   0.000000

  0.6666667E-01  0.4666667E+00  0.6666667E-01  0.4740741E-02
    1       -8.271081   1.000000
    2       -7.345150   1.000000
    3       -1.525444   0.000000
    4       -1.494931   0.000000
    5        0.103194   0.000000
    6        0.433866   0.000000

  0.1333333E+00  0.1333333E+00  0.6666667E-01  0.4740741E-02
    1       -8.271096   1.000000
    2       -7.345200   1.000000
    3       -1.500865   0.000000
    4       -1.496785   0.000000
    5       -0.141960   0.000000
    6        0.600892   0.000000

  0.6666667E-01  0.1333333E+00  0.1333333E+00  0.2370370E-02
    1       -8.271108   1.000000
    2       -7.345160   1.000000
    3       -1.501398   0.000000
    4       -1.500454   0.000000
    5       -0.134239   0.000000
    6        0.656574   0.000000

  0.2000000E+00  0.1333333E+00  0.6666667E-01  0.4740741E-02
    1       -8.271068   1.000000
    2       -7.345260   1.000000
    3       -1.500198   0.000000
    4       -1.496182   0.000000
    5       -0.115003   0.000000
    6        0.531035   0.000000

  0.6666667E-01  0.2000000E+00  0.1333333E+00  0.4740741E-02
    1       -8.271104   1.000000
    2       -7.345162   1.000000
    3       -1.506379   0.000000
    4       -1.500315   0.000000
    5       -0.095473   0.000000
    6        0.669035   0.000000

  0.1333333E+00  0.6666667E-01  0.2000000E+00  0.4740741E-02
    1       -8.271091   1.000000
    2       -7.345200   1.000000
    3       -1.506250   0.000000
    4       -1.496298   0.000000
    5       -0.103358   0.000000
    6        0.619409   0.000000

  0.2666667E+00  0.1333333E+00  0.6666667E-01  0.4740741E-02
    1       -8.271036   1.000000
    2       -7.345327   1.000000
    3       -1.499432   0.000000
    4       -1.495489   0.000000
    5       -0.077822   0.000000
    6        0.448445   0.000000

  0.6666667E-01  0.2666667E+00  0.1333333E+00  0.4740741E-02
    1       -8.271098   1.000000
    2       -7.345159   1.000000
    3       -1.512428   0.000000
    4       -1.499711   0.000000
    5       -0.043949   0.000000
    6        0.676973   0.000000

  0.1333333E+00  0.6666667E-01  0.2666667E+00  0.4740741E-02
    1       -8.271081   1.000000
    2       -7.345206   1.000000
    3       -1.512322   0.000000
    4       -1.495736   0.000000
    5       -0.052104   0.000000
    6        0.640877   0.000000

  0.3333333E+00  0.1333333E+00  0.6666667E-01  0.4740741E-02
    1       -8.271008   1.000000
    2       -7.345388   1.000000
    3       -1.498697   0.000000
    4       -1.494826   0.000000
    5       -0.031302   0.000000
    6        0.362104   0.000000

  0.6666667E-01  0.3333333E+00  0.1333333E+00  0.4740741E-02
    1       -8.271090   1.000000
    2       -7.345165   1.000000
    3       -1.518115   0.000000