 running on    1 total cores
 distrk:  each k-point on    1 cores,    1 groups
 distr:  one band on    1 cores,    1 groups
 vasp.6.2.1 16May21 (build Dec 20 2021 17:02:34) complex                         
 running on    1 total cores
 distrk:  each k-point on    1 cores,    1 groups
 distr:  one band on    1 cores,    1 groups
 POSCAR found type information on POSCAR H Be
 POSCAR found :  2 types and       3 ions
 running on    1 total cores
 distrk:  each k-point on    1 cores,    1 groups
 distr:  one band on    1 cores,    1 groups
 running on    1 total cores
 distrk:  each k-point on    1 cores,    1 groups
 distr:  one band on    1 cores,    1 groups
 scaLAPACK will be used
 vasp.6.2.1 16May21 (build Dec 20 2021 17:02:34) complex                         
 LDA part: xc-table for Pade appr. of Perdew
 vasp.6.2.1 16May21 (build Dec 20 2021 17:02:34) complex                         
 vasp.6.2.1 16May21 (build Dec 20 2021 17:02:34) complex                         
 POSCAR found type information on POSCAR H Be
 POSCAR found :  2 types and       3 ions
 scaLAPACK will be used
 POSCAR found type information on POSCAR H Be
 POSCAR found :  2 types and       3 ions
 scaLAPACK will be used
 POSCAR found type information on POSCAR H Be
 POSCAR found :  2 types and       3 ions
 scaLAPACK will be used
 LDA part: xc-table for Pade appr. of Perdew
 LDA part: xc-table for Pade appr. of Perdew
 LDA part: xc-table for Pade appr. of Perdew
 POSCAR, INCAR and KPOINTS ok, starting setup
 POSCAR, INCAR and KPOINTS ok, starting setup
 POSCAR, INCAR and KPOINTS ok, starting setup
 POSCAR, INCAR and KPOINTS ok, starting setup
 FFT: planning ...
 WAVECAR not read
 FFT: planning ...
 FFT: planning ...
 FFT: planning ...
 WAVECAR not read
 WAVECAR not read
 WAVECAR not read
 WARNING: random wavefunctions but no delay for mixing, default for NELMDL
 entering main loop
       N       E                     dE             d eps       ncg     rms          rms(c)
 WARNING: random wavefunctions but no delay for mixing, default for NELMDL
 WARNING: random wavefunctions but no delay for mixing, default for NELMDL
 WARNING: random wavefunctions but no delay for mixing, default for NELMDL
 entering main loop
       N       E                     dE             d eps       ncg     rms          rms(c)
 entering main loop
 entering main loop
       N       E                     dE             d eps       ncg     rms          rms(c)
       N       E                     dE             d eps       ncg     rms          rms(c)
DAV:   1     0.141233695835E+02    0.14123E+02   -0.65730E+02  3456   0.281E+02
DAV:   1     0.141233695835E+02    0.14123E+02   -0.65730E+02  3456   0.281E+02
DAV:   1     0.141233695835E+02    0.14123E+02   -0.65730E+02  3456   0.281E+02
DAV:   1     0.141233695835E+02    0.14123E+02   -0.65730E+02  3456   0.281E+02
DAV:   2    -0.574063148606E+01   -0.19864E+02   -0.18375E+02  4416   0.489E+01
DAV:   2    -0.574063148606E+01   -0.19864E+02   -0.18375E+02  4416   0.489E+01
DAV:   2    -0.574063148606E+01   -0.19864E+02   -0.18375E+02  4416   0.489E+01
DAV:   2    -0.574063148606E+01   -0.19864E+02   -0.18375E+02  4416   0.489E+01
DAV:   3    -0.992471268721E+01   -0.41841E+01   -0.41841E+01  4356   0.334E+01
DAV:   3    -0.992471268721E+01   -0.41841E+01   -0.41841E+01  4356   0.334E+01
DAV:   3    -0.992471268721E+01   -0.41841E+01   -0.41841E+01  4356   0.334E+01
DAV:   3    -0.992471268721E+01   -0.41841E+01   -0.41841E+01  4356   0.334E+01
DAV:   4    -0.100368686435E+02   -0.11216E+00   -0.11216E+00  5262   0.588E+00
DAV:   4    -0.100368686435E+02   -0.11216E+00   -0.11216E+00  5262   0.588E+00
DAV:   5    -0.100377765176E+02   -0.90787E-03   -0.90787E-03  4692   0.494E-01    0.598E+00
DAV:   4    -0.100368686435E+02   -0.11216E+00   -0.11216E+00  5262   0.588E+00
DAV:   4    -0.100368686435E+02   -0.11216E+00   -0.11216E+00  5262   0.588E+00
DAV:   5    -0.100377765176E+02   -0.90787E-03   -0.90787E-03  4692   0.494E-01    0.598E+00
DAV:   6    -0.903293085074E+01    0.10048E+01   -0.79100E-01  5592   0.444E+00    0.311E+00
DAV:   5    -0.100377765176E+02   -0.90787E-03   -0.90787E-03  4692   0.494E-01    0.598E+00
DAV:   5    -0.100377765176E+02   -0.90787E-03   -0.90787E-03  4692   0.494E-01    0.598E+00
DAV:   6    -0.903293085074E+01    0.10048E+01   -0.79100E-01  5592   0.444E+00    0.311E+00
DAV:   7    -0.860912079937E+01    0.42381E+00   -0.11598E+00  6186   0.553E+00    0.609E-01
DAV:   6    -0.903293085074E+01    0.10048E+01   -0.79100E-01  5592   0.444E+00    0.311E+00
DAV:   6    -0.903293085074E+01    0.10048E+01   -0.79100E-01  5592   0.444E+00    0.311E+00
DAV:   8    -0.861309000582E+01   -0.39692E-02   -0.17764E-02  5166   0.672E-01    0.143E-01
DAV:   7    -0.860912079937E+01    0.42381E+00   -0.11598E+00  6186   0.553E+00    0.609E-01
DAV:   9    -0.861122830802E+01    0.18617E-02   -0.78207E-03  4482   0.452E-01    0.989E-02
DAV:   7    -0.860912079937E+01    0.42381E+00   -0.11598E+00  6186   0.553E+00    0.609E-01
DAV:   7    -0.860912079937E+01    0.42381E+00   -0.11598E+00  6186   0.553E+00    0.609E-01
DAV:  10    -0.861619998835E+01   -0.49717E-02   -0.23108E-03  3714   0.264E-01    0.500E-02
DAV:   8    -0.861309000582E+01   -0.39692E-02   -0.17764E-02  5166   0.672E-01    0.143E-01
DAV:  11    -0.862022501192E+01   -0.40250E-02   -0.16025E-03  4422   0.202E-01    0.776E-02
DAV:   8    -0.861309000582E+01   -0.39692E-02   -0.17764E-02  5166   0.672E-01    0.143E-01
DAV:   8    -0.861309000582E+01   -0.39692E-02   -0.17764E-02  5166   0.672E-01    0.143E-01
DAV:   9    -0.861122830802E+01    0.18617E-02   -0.78207E-03  4482   0.452E-01    0.989E-02
DAV:  12    -0.862185487550E+01   -0.16299E-02   -0.10350E-03  4536   0.143E-01    0.152E-02
DAV:   9    -0.861122830802E+01    0.18617E-02   -0.78207E-03  4482   0.452E-01    0.989E-02
DAV:   9    -0.861122830802E+01    0.18617E-02   -0.78207E-03  4482   0.452E-01    0.989E-02
DAV:  10    -0.861619998835E+01   -0.49717E-02   -0.23108E-03  3714   0.264E-01    0.500E-02
DAV:  13    -0.862355535733E+01   -0.17005E-02   -0.30525E-04  4152   0.888E-02    0.574E-03
DAV:  10    -0.861619998835E+01   -0.49717E-02   -0.23108E-03  3714   0.264E-01    0.500E-02
DAV:  10    -0.861619998835E+01   -0.49717E-02   -0.23108E-03  3714   0.264E-01    0.500E-02
DAV:  14    -0.862399633434E+01   -0.44098E-03   -0.61818E-05  4326   0.387E-02    0.488E-03
DAV:  11    -0.862022501192E+01   -0.40250E-02   -0.16025E-03  4422   0.202E-01    0.776E-02
DAV:  15    -0.862413361742E+01   -0.13728E-03   -0.72268E-06  4386   0.158E-02    0.144E-03
DAV:  11    -0.862022501192E+01   -0.40250E-02   -0.16025E-03  4422   0.202E-01    0.776E-02
DAV:  11    -0.862022501192E+01   -0.40250E-02   -0.16025E-03  4422   0.202E-01    0.776E-02
DAV:  12    -0.862185487550E+01   -0.16299E-02   -0.10350E-03  4536   0.143E-01    0.152E-02
DAV:  16    -0.862414376939E+01   -0.10152E-04   -0.10053E-06  4968   0.585E-03    0.185E-03
DAV:  12    -0.862185487550E+01   -0.16299E-02   -0.10350E-03  4536   0.143E-01    0.152E-02
DAV:  12    -0.862185487550E+01   -0.16299E-02   -0.10350E-03  4536   0.143E-01    0.152E-02
DAV:  17    -0.862414910812E+01   -0.53387E-05   -0.10897E-06  3948   0.501E-03    0.179E-04
DAV:  13    -0.862355535733E+01   -0.17005E-02   -0.30525E-04  4152   0.888E-02    0.574E-03
DAV:  13    -0.862355535733E+01   -0.17005E-02   -0.30525E-04  4152   0.888E-02    0.574E-03
DAV:  18    -0.862415058298E+01   -0.14749E-05   -0.85410E-08  4434   0.152E-03    0.118E-04
DAV:  13    -0.862355535733E+01   -0.17005E-02   -0.30525E-04  4152   0.888E-02    0.574E-03
DAV:  14    -0.862399633434E+01   -0.44098E-03   -0.61818E-05  4326   0.387E-02    0.488E-03
DAV:  19    -0.862415108716E+01   -0.50419E-06   -0.35006E-08  3666   0.832E-04    0.618E-05
DAV:  14    -0.862399633434E+01   -0.44098E-03   -0.61818E-05  4326   0.387E-02    0.488E-03
DAV:  14    -0.862399633434E+01   -0.44098E-03   -0.61818E-05  4326   0.387E-02    0.488E-03
DAV:  20    -0.862415146986E+01   -0.38270E-06   -0.22089E-08  3888   0.664E-04    0.266E-05
DAV:  15    -0.862413361742E+01   -0.13728E-03   -0.72268E-06  4386   0.158E-02    0.144E-03
DAV:  15    -0.862413361742E+01   -0.13728E-03   -0.72268E-06  4386   0.158E-02    0.144E-03
DAV:  21    -0.862415151396E+01   -0.44103E-07   -0.24866E-09  4770   0.233E-04
DAV:  15    -0.862413361742E+01   -0.13728E-03   -0.72268E-06  4386   0.158E-02    0.144E-03
DAV:  16    -0.862414376939E+01   -0.10152E-04   -0.10053E-06  4968   0.585E-03    0.185E-03
   1 F= -.86241515E+01 E0= -.86241515E+01  d E =-.862415E+01
 curvature:   0.00 expect dE= 0.000E+00 dE for cont linesearch  0.000E+00
 trial: gam= 0.00000 g(F)=  0.189E-02 g(S)=  0.000E+00 ort = 0.000E+00 (trialstep = 0.100E+01)
 search vector abs. value=  0.189E-02
 bond charge predicted
DAV:  16    -0.862414376939E+01   -0.10152E-04   -0.10053E-06  4968   0.585E-03       N       E                     dE             d eps       ncg     rms          rms(c)
    0.185E-03
DAV:  16    -0.862414376939E+01   -0.10152E-04   -0.10053E-06  4968   0.585E-03    0.185E-03
DAV:  17    -0.862414910812E+01   -0.53387E-05   -0.10897E-06  3948   0.501E-03    0.179E-04
DAV:   1    -0.862546290591E+01   -0.13114E-02   -0.36336E-02  3456   0.166E+00    0.620E-02
DAV:  17    -0.862414910812E+01   -0.53387E-05   -0.10897E-06  3948   0.501E-03    0.179E-04
DAV:  17    -0.862414910812E+01   -0.53387E-05   -0.10897E-06  3948   0.501E-03    0.179E-04
DAV:   2    -0.862537995918E+01    0.82947E-04   -0.21331E-04  4920   0.116E-01    0.345E-02
DAV:  18    -0.862415058298E+01   -0.14749E-05   -0.85410E-08  4434   0.152E-03    0.118E-04
DAV:  18    -0.862415058298E+01   -0.14749E-05   -0.85410E-08  4434   0.152E-03    0.118E-04
DAV:   3    -0.862533204930E+01    0.47910E-04   -0.14470E-04  4638   0.524E-02DAV:  18    -0.862415058298E+01   -0.14749E-05   -0.85410E-08  4434   0.152E-03    0.241E-03
    0.118E-04
DAV:  19    -0.862415108716E+01   -0.50419E-06   -0.35006E-08  3666   0.832E-04    0.618E-05
DAV:  19    -0.862415108716E+01   -0.50419E-06   -0.35006E-08  3666   0.832E-04DAV:   4    -0.862533460474E+01   -0.25554E-05   -0.11427E-06  4224   0.734E-03    0.618E-05
    0.147E-03
DAV:  19    -0.862415108716E+01   -0.50419E-06   -0.35006E-08  3666   0.832E-04    0.618E-05
DAV:  20    -0.862415146986E+01   -0.38270E-06   -0.22089E-08  3888   0.664E-04    0.266E-05
DAV:   5    -0.862533867484E+01   -0.40701E-05   -0.56400E-07  4320   0.431E-03    0.491E-04
DAV:  20    -0.862415146986E+01   -0.38270E-06   -0.22089E-08  3888   0.664E-04    0.266E-05
DAV:  20    -0.862415146986E+01   -0.38270E-06   -0.22089E-08  3888   0.664E-04    0.266E-05
DAV:   6    -0.862534132425E+01   -0.26494E-05   -0.19074E-07  4314   0.184E-03    0.237E-04
DAV:  21    -0.862415151396E+01   -0.44103E-07   -0.24866E-09  4770   0.233E-04
DAV:  21    -0.862415151396E+01   -0.44103E-07   -0.24866E-09  4770   0.233E-04
DAV:   7    -0.862534346693E+01   -0.21427E-05   -0.28260E-07  4332   0.220E-03    0.267E-04
DAV:  21    -0.862415151396E+01   -0.44103E-07   -0.24866E-09  4770   0.233E-04
DAV:   8    -0.862534406124E+01   -0.59431E-06   -0.59357E-08  4824   0.116E-03    0.112E-04
   1 F= -.86241515E+01 E0= -.86241515E+01  d E =-.862415E+01
 curvature:   0.00 expect dE= 0.000E+00 dE for cont linesearch  0.000E+00
 trial: gam= 0.00000 g(F)=  0.189E-02 g(S)=  0.000E+00 ort = 0.000E+00 (trialstep = 0.100E+01)
 search vector abs. value=  0.189E-02
 bond charge predicted
       N       E                     dE             d eps       ncg     rms          rms(c)
DAV:   9    -0.862534427771E+01   -0.21646E-06   -0.24023E-08  4062   0.699E-04    0.759E-05
   1 F= -.86241515E+01 E0= -.86241515E+01  d E =-.862415E+01
 curvature:   0.00 expect dE= 0.000E+00 dE for cont linesearch  0.000E+00
 trial: gam= 0.00000 g(F)=  0.189E-02 g(S)=  0.000E+00 ort = 0.000E+00 (trialstep = 0.100E+01)
 search vector abs. value=  0.189E-02
 bond charge predicted
       N       E                     dE             d eps       ncg     rms          rms(c)
   1 F= -.86241515E+01 E0= -.86241515E+01  d E =-.862415E+01
 curvature:   0.00 expect dE= 0.000E+00 dE for cont linesearch  0.000E+00
 trial: gam= 0.00000 g(F)=  0.189E-02 g(S)=  0.000E+00 ort = 0.000E+00 (trialstep = 0.100E+01)
 search vector abs. value=  0.189E-02
 bond charge predicted
       N       E                     dE             d eps       ncg     rms          rms(c)
DAV:   1    -0.862546290591E+01   -0.13114E-02   -0.36336E-02  3456   0.166E+00    0.620E-02
DAV:  10    -0.862534433966E+01   -0.61956E-07   -0.43805E-09  4476   0.314E-04
DAV:   1    -0.862546290591E+01   -0.13114E-02   -0.36336E-02  3456   0.166E+00    0.620E-02
DAV:   1    -0.862546290591E+01   -0.13114E-02   -0.36336E-02  3456   0.166E+00    0.620E-02
DAV:   2    -0.862537995918E+01    0.82947E-04   -0.21331E-04  4920   0.116E-01    0.345E-02
   2 F= -.86253443E+01 E0= -.86253443E+01  d E =-.119283E-02
 trial-energy change:   -0.001193  1 .order   -0.001200   -0.001889   -0.000511
 step:   1.3877(harm=  1.3706)  dis= 0.00937  next Energy=    -8.625443 (dE=-0.129E-02)
 bond charge predicted
       N       E                     dE             d eps       ncg     rms          rms(c)
DAV:   2    -0.862537995918E+01    0.82947E-04   -0.21331E-04  4920   0.116E-01    0.345E-02
DAV:   2    -0.862537995918E+01    0.82947E-04   -0.21331E-04  4920   0.116E-01    0.345E-02
DAV:   1    -0.862545764853E+01   -0.11337E-03   -0.54490E-03  3468   0.645E-01    0.239E-02
DAV:   3    -0.862533204930E+01    0.47910E-04   -0.14470E-04  4638   0.524E-02    0.241E-03
DAV:   3    -0.862533204930E+01    0.47910E-04   -0.14470E-04  4638   0.524E-02    0.241E-03
DAV:   3    -0.862533204930E+01    0.47910E-04   -0.14470E-04  4638   0.524E-02    0.241E-03
DAV:   4    -0.862533460474E+01   -0.25554E-05   -0.11427E-06  4224   0.734E-03    0.147E-03
DAV:   2    -0.862544469500E+01    0.12954E-04   -0.32268E-05  4626   0.452E-02    0.133E-02
DAV:   4    -0.862533460474E+01   -0.25554E-05   -0.11427E-06  4224   0.734E-03    0.147E-03
DAV:   5    -0.862533867484E+01   -0.40701E-05   -0.56400E-07  4320   0.431E-03    0.491E-04
DAV:   4    -0.862533460474E+01   -0.25554E-05   -0.11427E-06  4224   0.734E-03    0.147E-03
DAV:   5    -0.862533867484E+01   -0.40701E-05   -0.56400E-07  4320   0.431E-03    0.491E-04
DAV:   3    -0.862543658924E+01    0.81058E-05   -0.21426E-05  5052   0.202E-02    0.931E-04
DAV:   6    -0.862534132425E+01   -0.26494E-05   -0.19074E-07  4314   0.184E-03    0.237E-04
DAV:   5    -0.862533867484E+01   -0.40701E-05   -0.56400E-07  4320   0.431E-03    0.491E-04
DAV:   7    -0.862534346693E+01   -0.21427E-05   -0.28260E-07  4332   0.220E-03    0.267E-04
DAV:   6    -0.862534132425E+01   -0.26494E-05   -0.19074E-07  4314   0.184E-03    0.237E-04
DAV:   4    -0.862543694043E+01   -0.35119E-06   -0.13176E-07  4482   0.250E-03    0.569E-04
DAV:   8    -0.862534406124E+01   -0.59431E-06   -0.59357E-08  4824   0.116E-03DAV:   6    -0.862534132425E+01   -0.26494E-05   -0.19074E-07  4314   0.184E-03    0.112E-04
    0.237E-04
DAV:   7    -0.862534346693E+01   -0.21427E-05   -0.28260E-07  4332   0.220E-03    0.267E-04
DAV:   5    -0.862543761242E+01   -0.67199E-06   -0.77371E-08  4302   0.160E-03    0.193E-04
DAV:   9    -0.862534427771E+01   -0.21646E-06   -0.24023E-08  4062   0.699E-04    0.759E-05
DAV:   7    -0.862534346693E+01   -0.21427E-05   -0.28260E-07  4332   0.220E-03    0.267E-04
DAV:   6    -0.862543822232E+01   -0.60989E-06   -0.32090E-08  4272   0.734E-04DAV:   8    -0.862534406124E+01   -0.59431E-06   -0.59357E-08  4824   0.116E-03    0.103E-04
    0.112E-04
DAV:  10    -0.862534433966E+01   -0.61956E-07   -0.43805E-09  4476   0.314E-04
DAV:   8    -0.862534406124E+01   -0.59431E-06   -0.59357E-08  4824   0.116E-03    0.112E-04
DAV:   9    -0.862534427771E+01   -0.21646E-06   -0.24023E-08  4062   0.699E-04    0.759E-05
   2 F= -.86253443E+01 E0= -.86253443E+01  d E =-.119283E-02
 trial-energy change:   -0.001193  1 .order   -0.001200   -0.001889   -0.000511
 step:   1.3877(harm=  1.3706)  dis= 0.00937  next Energy=    -8.625443 (dE=-0.129E-02)
 bond charge predicted
DAV:   7    -0.862543872471E+01   -0.50239E-06   -0.40934E-08  4560   0.812E-04       N       E                     dE             d eps       ncg     rms          rms(c)
    0.101E-04
DAV:   1    -0.862545764853E+01   -0.11337E-03   -0.54490E-03  3468   0.645E-01    0.239E-02
DAV:   9    -0.862534427771E+01   -0.21646E-06   -0.24023E-08  4062   0.699E-04    0.759E-05
DAV:  10    -0.862534433966E+01   -0.61956E-07   -0.43805E-09  4476   0.314E-04
DAV:   8    -0.862543895285E+01   -0.22814E-06   -0.14068E-08  4374   0.539E-04    0.475E-05
DAV:   2    -0.862544469500E+01    0.12954E-04   -0.32268E-05  4626   0.452E-02    0.133E-02
DAV:  10    -0.862534433966E+01   -0.61956E-07   -0.43805E-09  4476   0.314E-04
DAV:   9    -0.862543902475E+01   -0.71901E-07   -0.52238E-09  4554   0.325E-04
DAV:   3    -0.862543658924E+01    0.81058E-05   -0.21426E-05  5052   0.202E-02    0.931E-04
   2 F= -.86253443E+01 E0= -.86253443E+01  d E =-.119283E-02
 trial-energy change:   -0.001193  1 .order   -0.001200   -0.001889   -0.000511
 step:   1.3877(harm=  1.3706)  dis= 0.00937  next Energy=    -8.625443 (dE=-0.129E-02)
 bond charge predicted
       N       E                     dE             d eps       ncg     rms          rms(c)
DAV:   4    -0.862543694043E+01   -0.35119E-06   -0.13176E-07  4482   0.250E-03    0.569E-04
   2 F= -.86253443E+01 E0= -.86253443E+01  d E =-.119283E-02
 trial-energy change:   -0.001193  1 .order   -0.001200   -0.001889   -0.000511
 step:   1.3877(harm=  1.3706)  dis= 0.00937  next Energy=    -8.625443 (dE=-0.129E-02)
 bond charge predicted
       N       E                     dE             d eps       ncg     rms          rms(c)
DAV:   1    -0.862545764853E+01   -0.11337E-03   -0.54490E-03  3468   0.645E-01    0.239E-02
DAV:   5    -0.862543761242E+01   -0.67199E-06   -0.77371E-08  4302   0.160E-03    0.193E-04
   3 F= -.86254390E+01 E0= -.86254390E+01  d E =-.128751E-02
 curvature:  -0.68 expect dE=-0.657E-07 dE for cont linesearch -0.657E-07
 trial: gam= 0.00000 g(F)=  0.960E-07 g(S)=  0.000E+00 ort =-0.135E-04 (trialstep = 0.108E+01)
 search vector abs. value=  0.961E-07
 reached required accuracy - stopping structural energy minimisation
 writing wavefunctions
DAV:   1    -0.862545764853E+01   -0.11337E-03   -0.54490E-03  3468   0.645E-01    0.239E-02
DAV:   6    -0.862543822232E+01   -0.60989E-06   -0.32090E-08  4272   0.734E-04    0.103E-04
DAV:   2    -0.862544469500E+01    0.12954E-04   -0.32268E-05  4626   0.452E-02    0.133E-02
DAV:   7    -0.862543872471E+01   -0.50239E-06   -0.40934E-08  4560   0.812E-04    0.101E-04
DAV:   2    -0.862544469500E+01    0.12954E-04   -0.32268E-05  4626   0.452E-02    0.133E-02
DAV:   3    -0.862543658924E+01    0.81058E-05   -0.21426E-05  5052   0.202E-02    0.931E-04
DAV:   8    -0.862543895285E+01   -0.22814E-06   -0.14068E-08  4374   0.539E-04    0.475E-05
DAV:   3    -0.862543658924E+01    0.81058E-05   -0.21426E-05  5052   0.202E-02DAV:   9    -0.862543902475E+01   -0.71901E-07   -0.52238E-09  4554   0.325E-04
    0.931E-04
DAV:   4    -0.862543694043E+01   -0.35119E-06   -0.13176E-07  4482   0.250E-03    0.569E-04
DAV:   4    -0.862543694043E+01   -0.35119E-06   -0.13176E-07  4482   0.250E-03   3 F= -.86254390E+01 E0= -.86254390E+01  d E =-.128751E-02
 curvature:  -0.68 expect dE=-0.657E-07 dE for cont linesearch -0.657E-07
 trial: gam= 0.00000 g(F)=  0.960E-07 g(S)=  0.000E+00 ort =-0.135E-04 (trialstep = 0.108E+01)
 search vector abs. value=  0.961E-07
 reached required accuracy - stopping structural energy minimisation
 writing wavefunctions
    0.569E-04
DAV:   5    -0.862543761242E+01   -0.67199E-06   -0.77371E-08  4302   0.160E-03    0.193E-04
DAV:   6    -0.862543822232E+01   -0.60989E-06   -0.32090E-08  4272   0.734E-04    0.103E-04
DAV:   5    -0.862543761242E+01   -0.67199E-06   -0.77371E-08  4302   0.160E-03    0.193E-04
DAV:   7    -0.862543872471E+01   -0.50239E-06   -0.40934E-08  4560   0.812E-04    0.101E-04
DAV:   6    -0.862543822232E+01   -0.60989E-06   -0.32090E-08  4272   0.734E-04    0.103E-04
DAV:   8    -0.862543895285E+01   -0.22814E-06   -0.14068E-08  4374   0.539E-04    0.475E-05
DAV:   9    -0.862543902475E+01   -0.71901E-07   -0.52238E-09  4554   0.325E-04
DAV:   7    -0.862543872471E+01   -0.50239E-06   -0.40934E-08  4560   0.812E-04    0.101E-04
   3 F= -.86254390E+01 E0= -.86254390E+01  d E =-.128751E-02
 curvature:  -0.68 expect dE=-0.657E-07 dE for cont linesearch -0.657E-07
 trial: gam= 0.00000 g(F)=  0.960E-07 g(S)=  0.000E+00 ort =-0.135E-04 (trialstep = 0.108E+01)
 search vector abs. value=  0.961E-07
 reached required accuracy - stopping structural energy minimisation
 writing wavefunctions
DAV:   8    -0.862543895285E+01   -0.22814E-06   -0.14068E-08  4374   0.539E-04    0.475E-05
DAV:   9    -0.862543902475E+01   -0.71901E-07   -0.52238E-09  4554   0.325E-04
   3 F= -.86254390E+01 E0= -.86254390E+01  d E =-.128751E-02
 curvature:  -0.68 expect dE=-0.657E-07 dE for cont linesearch -0.657E-07
 trial: gam= 0.00000 g(F)=  0.960E-07 g(S)=  0.000E+00 ort =-0.135E-04 (trialstep = 0.108E+01)
 search vector abs. value=  0.961E-07
 reached required accuracy - stopping structural energy minimisation
 writing wavefunctions
