 vasp.6.2.1 16May21 (build Dec 20 2021 17:02:34) complex                         
 executed on             LinuxGNU date 2026.03.11  13:07:33
 running on    1 total cores
 distrk:  each k-point on    1 cores,    1 groups
 distr:  one band on NCORE=   1 cores,    1 groups


--------------------------------------------------------------------------------------------------------


 INCAR:
   ISMEAR = 0
   NSW = 100
   IBRION = 2
   ISIF = 2
   ENCUT = 500
   EDIFF = 0.0000001

 POTCAR:    PAW_PBE H 15Jun2001                   
 POTCAR:    PAW_PBE Be_GW 04Mar2008               
 POTCAR:    PAW_PBE H 15Jun2001                   
   VRHFIN =H: ultrasoft test                                                                        
   LEXCH  = PE                                                                                      
   EATOM  =    12.4884 eV,    0.9179 Ry                                                             
                                                                                                    
   TITEL  = PAW_PBE H 15Jun2001                                                                     
   LULTRA =        F    use ultrasoft PP ?                                                          
   IUNSCR =        0    unscreen: 0-lin 1-nonlin 2-no                                               
   RPACOR =    0.000    partial core radius                                                         
   POMASS =    1.000; ZVAL   =    1.000    mass and valenz                                          
   RCORE  =    1.100    outmost cutoff radius                                                       
   RWIGS  =    0.700; RWIGS  =    0.370    wigner-seitz radius (au A)                               
   ENMAX  =  250.000; ENMIN  =  200.000 eV                                                          
   RCLOC  =    0.701    cutoff for local pot                                                        
   LCOR   =        T    correct aug charges                                                         
   LPAW   =        T    paw PP                                                                      
   EAUG   =  400.000                                                                                
   RMAX   =    1.123    core radius for proj-oper                                                   
   RAUG   =    1.200    factor for augmentation sphere                                              
   RDEP   =    1.112    radius for radial grids                                                     
   RDEPT  =    0.926    core radius for aug-charge                                                  
                                                                                                    
   Atomic configuration                                                                             
    2 entries                                                                                       
     n  l   j            E        occ.                                                              
     1  0  0.50        -6.4927   1.0000                                                             
     2  1  0.50        -3.4015   0.0000                                                             
   Description                                                                                      
     l       E           TYP  RCUT    TYP  RCUT                                                     
     0     -6.4927494     23  1.100                                                                 
     0      6.8029130     23  1.100                                                                 
     1     -4.0817478     23  1.100                                                                 
  local pseudopotential read in
  atomic valenz-charges read in
  non local Contribution for L=           0  read in
    real space projection operators read in
  non local Contribution for L=           0  read in
    real space projection operators read in
  non local Contribution for L=           1  read in
    real space projection operators read in
    PAW grid and wavefunctions read in

   number of l-projection  operators is LMAX  =           3
   number of lm-projection operators is LMMAX =           5

 POTCAR:    PAW_PBE Be_GW 04Mar2008               
   VRHFIN =Be: s2p0                                                                                 
   LEXCH  = PE                                                                                      
   EATOM  =    27.5229 eV,    2.0229 Ry                                                             
                                                                                                    
   TITEL  = PAW_PBE Be_GW 04Mar2008                                                                 
   LULTRA =        F    use ultrasoft PP ?                                                          
   IUNSCR =        1    unscreen: 0-lin 1-nonlin 2-no                                               
   RPACOR =    1.580    partial core radius                                                         
   POMASS =    9.013; ZVAL   =    2.000    mass and valenz                                          
   RCORE  =    1.900    outmost cutoff radius                                                       
   RWIGS  =    1.900; RWIGS  =    1.005    wigner-seitz radius (au A)                               
   ENMAX  =  247.543; ENMIN  =  185.657 eV                                                          
   RCLOC  =    1.409    cutoff for local pot                                                        
   LCOR   =        T    correct aug charges                                                         
   LPAW   =        T    paw PP                                                                      
   EAUG   =  527.985                                                                                
   DEXC   =    0.000                                                                                
   RMAX   =    1.944    core radius for proj-oper                                                   
   RAUG   =    1.300    factor for augmentation sphere                                              
   RDEP   =    2.003    radius for radial grids                                                     
   RDEPT  =    1.802    core radius for aug-charge                                                  
                                                                                                    
   Atomic configuration                                                                             
    4 entries                                                                                       
     n  l   j            E        occ.                                                              
     1  0  0.50      -106.2290   2.0000                                                             
     2  0  0.50        -5.6115   1.9999                                                             
     2  1  0.50        -2.0196   0.0010                                                             
     3  2  1.50        -1.3606   0.0000                                                             
   Description                                                                                      
     l       E           TYP  RCUT    TYP  RCUT                                                     
     0     -5.6114891     23  1.900                                                                 
     0     68.0291300     23  1.900                                                                 
     1     -2.0196155     23  1.900                                                                 
     1     54.4233040     23  1.900                                                                 
     2     54.4233040     23  1.900                                                                 
  local pseudopotential read in
  partial core-charges read in
  partial kinetic energy density read in
  kinetic energy density of atom read in
  atomic valenz-charges read in
  non local Contribution for L=           0  read in
    real space projection operators read in
  non local Contribution for L=           0  read in
    real space projection operators read in
  non local Contribution for L=           1  read in
    real space projection operators read in
  non local Contribution for L=           1  read in
    real space projection operators read in
  non local Contribution for L=           2  read in
    real space projection operators read in
    PAW grid and wavefunctions read in

   number of l-projection  operators is LMAX  =           5
   number of lm-projection operators is LMMAX =          13

  PAW_PBE H 15Jun2001                   :
 energy of atom  1       EATOM=  -12.4884
 kinetic energy error for atom=    0.0020 (will be added to EATOM!!)
  PAW_PBE Be_GW 04Mar2008               :
 energy of atom  2       EATOM=  -27.5229
 kinetic energy error for atom=    0.0001 (will be added to EATOM!!)


 POSCAR: BeH2
  positions in cartesian coordinates
  No initial velocities read in
 exchange correlation table for  LEXCH =        8
   RHO(1)=    0.500       N(1)  =     2000
   RHO(2)=  100.500       N(2)  =     4000



--------------------------------------------------------------------------------------------------------


 ion  position               nearest neighbor table
   1  0.629  0.500  0.500-   3 1.33
   2  0.371  0.500  0.500-   3 1.33
   3  0.500  0.500  0.500-   1 1.33   2 1.33

  LATTYP: Found a simple cubic cell.
 ALAT       =    10.3250000477
  
  Lattice vectors:
  
 A1 = (  10.3250000477,   0.0000000000,   0.0000000000)
 A2 = (   0.0000000000,  10.3250000477,   0.0000000000)
 A3 = (   0.0000000000,   0.0000000000,  10.3250000477)


Analysis of symmetry for initial positions (statically):
=====================================================================
 Subroutine PRICEL returns:
 Original cell was already a primitive cell.
 

 Routine SETGRP: Setting up the symmetry group for a 
 simple cubic supercell.


 Subroutine GETGRP returns: Found 16 space group operations
 (whereof 16 operations were pure point group operations)
 out of a pool of 48 trial point group operations.


The static configuration has the point symmetry D_4h.


Analysis of symmetry for dynamics (positions and initial velocities):
=====================================================================
 Subroutine PRICEL returns:
 Original cell was already a primitive cell.
 

 Routine SETGRP: Setting up the symmetry group for a 
 simple cubic supercell.


 Subroutine GETGRP returns: Found 16 space group operations
 (whereof 16 operations were pure point group operations)
 out of a pool of 48 trial point group operations.


The dynamic configuration has the point symmetry D_4h.


 Subroutine INISYM returns: Found 16 space group operations
 (whereof 16 operations are pure point group operations),
 and found     1 'primitive' translations


----------------------------------------------------------------------------------------

                                     Primitive cell                                     

  volume of cell :    1100.7031

  direct lattice vectors                    reciprocal lattice vectors
    10.325000048  0.000000000  0.000000000     0.096852300  0.000000000  0.000000000
     0.000000000 10.325000048  0.000000000     0.000000000  0.096852300  0.000000000
     0.000000000  0.000000000 10.325000048     0.000000000  0.000000000  0.096852300

  length of vectors
    10.325000048 10.325000048 10.325000048     0.096852300  0.096852300  0.096852300

  position of ions in fractional coordinates (direct lattice)
     0.628813553  0.500000000  0.500000000
     0.371186438  0.500000000  0.500000000
     0.500000000  0.500000000  0.500000000

  ion indices of the primitive-cell ions
   primitive index   ion index
                 1           1
                 2           2
                 3           3

----------------------------------------------------------------------------------------



 KPOINTS: KPOINTS created by Atomic Simulation Env

Automatic generation of k-mesh.
 Grid dimensions read from file:
 generate k-points for:   15   15   15

 Generating k-lattice:

  Cartesian coordinates                     Fractional coordinates (reciprocal lattice)
     0.006456820  0.000000000  0.000000000     0.066666667  0.000000000  0.000000000
     0.000000000  0.006456820  0.000000000     0.000000000  0.066666667  0.000000000
     0.000000000  0.000000000  0.006456820     0.000000000  0.000000000  0.066666667

  Length of vectors
     0.006456820  0.006456820  0.006456820

  Shift w.r.t. Gamma in fractional coordinates (k-lattice)
     0.000000000  0.000000000  0.000000000

 
 Subroutine IBZKPT returns following result:
 ===========================================
 
 Found    288 irreducible k-points:
 
 Following reciprocal coordinates:
            Coordinates               Weight
  0.000000  0.000000  0.000000      1.000000
  0.066667  0.000000  0.000000      2.000000
  0.000000  0.066667  0.000000      4.000000
  0.133333  0.000000  0.000000      2.000000
  0.000000  0.133333  0.000000      4.000000
  0.200000  0.000000  0.000000      2.000000
  0.000000  0.200000  0.000000      4.000000
  0.266667  0.000000  0.000000      2.000000
  0.000000  0.266667  0.000000      4.000000
  0.333333  0.000000  0.000000      2.000000
  0.000000  0.333333  0.000000      4.000000
  0.400000  0.000000  0.000000      2.000000
  0.000000  0.400000  0.000000      4.000000
  0.466667  0.000000  0.000000      2.000000
  0.000000  0.466667  0.000000      4.000000
  0.066667  0.066667  0.000000      8.000000
  0.000000  0.066667  0.066667      4.000000
  0.133333  0.066667  0.000000      8.000000
  0.000000  0.133333  0.066667      8.000000
  0.066667  0.000000  0.133333      8.000000
  0.200000  0.066667  0.000000      8.000000
  0.000000  0.200000  0.066667      8.000000
  0.066667  0.000000  0.200000      8.000000
  0.266667  0.066667  0.000000      8.000000
  0.000000  0.266667  0.066667      8.000000
  0.066667  0.000000  0.266667      8.000000
  0.333333  0.066667  0.000000      8.000000
  0.000000  0.333333  0.066667      8.000000
  0.066667  0.000000  0.333333      8.000000
  0.400000  0.066667  0.000000      8.000000
  0.000000  0.400000  0.066667      8.000000
  0.066667  0.000000  0.400000      8.000000
  0.466667  0.066667  0.000000      8.000000
  0.000000  0.466667  0.066667      8.000000
  0.066667  0.000000  0.466667      8.000000
  0.133333  0.133333  0.000000      8.000000
  0.000000  0.133333  0.133333      4.000000
  0.200000  0.133333  0.000000      8.000000
  0.000000  0.200000  0.133333      8.000000
  0.133333  0.000000  0.200000      8.000000
  0.266667  0.133333  0.000000      8.000000
  0.000000  0.266667  0.133333      8.000000
  0.133333  0.000000  0.266667      8.000000
  0.333333  0.133333  0.000000      8.000000
  0.000000  0.333333  0.133333      8.000000
  0.133333  0.000000  0.333333      8.000000
  0.400000  0.133333  0.000000      8.000000
  0.000000  0.400000  0.133333      8.000000
  0.133333  0.000000  0.400000      8.000000
  0.466667  0.133333  0.000000      8.000000
  0.000000  0.466667  0.133333      8.000000
  0.133333  0.000000  0.466667      8.000000
  0.200000  0.200000  0.000000      8.000000
  0.000000  0.200000  0.200000      4.000000
  0.266667  0.200000  0.000000      8.000000
  0.000000  0.266667  0.200000      8.000000
  0.200000  0.000000  0.266667      8.000000
  0.333333  0.200000  0.000000      8.000000
  0.000000  0.333333  0.200000      8.000000
  0.200000  0.000000  0.333333      8.000000
  0.400000  0.200000  0.000000      8.000000
  0.000000  0.400000  0.200000      8.000000
  0.200000  0.000000  0.400000      8.000000
  0.466667  0.200000  0.000000      8.000000
  0.000000  0.466667  0.200000      8.000000
  0.200000  0.000000  0.466667      8.000000
  0.266667  0.266667  0.000000      8.000000
  0.000000  0.266667  0.266667      4.000000
  0.333333  0.266667  0.000000      8.000000
  0.000000  0.333333  0.266667      8.000000
  0.266667  0.000000  0.333333      8.000000
  0.400000  0.266667  0.000000      8.000000
  0.000000  0.400000  0.266667      8.000000
  0.266667  0.000000  0.400000      8.000000
  0.466667  0.266667  0.000000      8.000000
  0.000000  0.466667  0.266667      8.000000
  0.266667  0.000000  0.466667      8.000000
  0.333333  0.333333  0.000000      8.000000
  0.000000  0.333333  0.333333      4.000000
  0.400000  0.333333  0.000000      8.000000
  0.000000  0.400000  0.333333      8.000000
  0.333333  0.000000  0.400000      8.000000
  0.466667  0.333333  0.000000      8.000000
  0.000000  0.466667  0.333333      8.000000
  0.333333  0.000000  0.466667      8.000000
  0.400000  0.400000  0.000000      8.000000
  0.000000  0.400000  0.400000      4.000000
  0.466667  0.400000  0.000000      8.000000
  0.000000  0.466667  0.400000      8.000000
  0.400000  0.000000  0.466667      8.000000
  0.466667  0.466667  0.000000      8.000000
  0.000000  0.466667  0.466667      4.000000
  0.066667  0.066667  0.066667      8.000000
  0.133333  0.066667  0.066667      8.000000
  0.066667  0.133333  0.066667     16.000000
  0.200000  0.066667  0.066667      8.000000
  0.066667  0.200000  0.066667     16.000000
  0.266667  0.066667  0.066667      8.000000
  0.066667  0.266667  0.066667     16.000000
  0.333333  0.066667  0.066667      8.000000
  0.066667  0.333333  0.066667     16.000000
  0.400000  0.066667  0.066667      8.000000
  0.066667  0.400000  0.066667     16.000000
  0.466667  0.066667  0.066667      8.000000
  0.066667  0.466667  0.066667     16.000000
  0.133333  0.133333  0.066667     16.000000
  0.066667  0.133333  0.133333      8.000000
  0.200000  0.133333  0.066667     16.000000
  0.066667  0.200000  0.133333     16.000000
  0.133333  0.066667  0.200000     16.000000
  0.266667  0.133333  0.066667     16.000000
  0.066667  0.266667  0.133333     16.000000
  0.133333  0.066667  0.266667     16.000000
  0.333333  0.133333  0.066667     16.000000
  0.066667  0.333333  0.133333     16.000000
  0.133333  0.066667  0.333333     16.000000
  0.400000  0.133333  0.066667     16.000000
  0.066667  0.400000  0.133333     16.000000
  0.133333  0.066667  0.400000     16.000000
  0.466667  0.133333  0.066667     16.000000
  0.066667  0.466667  0.133333     16.000000
  0.133333  0.066667  0.466667     16.000000
  0.200000  0.200000  0.066667     16.000000
  0.066667  0.200000  0.200000      8.000000
  0.266667  0.200000  0.066667     16.000000
  0.066667  0.266667  0.200000     16.000000
  0.200000  0.066667  0.266667     16.000000
  0.333333  0.200000  0.066667     16.000000
  0.066667  0.333333  0.200000     16.000000
  0.200000  0.066667  0.333333     16.000000
  0.400000  0.200000  0.066667     16.000000
  0.066667  0.400000  0.200000     16.000000
  0.200000  0.066667  0.400000     16.000000
  0.466667  0.200000  0.066667     16.000000
  0.066667  0.466667  0.200000     16.000000
  0.200000  0.066667  0.466667     16.000000
  0.266667  0.266667  0.066667     16.000000
  0.066667  0.266667  0.266667      8.000000
  0.333333  0.266667  0.066667     16.000000
  0.066667  0.333333  0.266667     16.000000
  0.266667  0.066667  0.333333     16.000000
  0.400000  0.266667  0.066667     16.000000
  0.066667  0.400000  0.266667     16.000000
  0.266667  0.066667  0.400000     16.000000
  0.466667  0.266667  0.066667     16.000000
  0.066667  0.466667  0.266667     16.000000
  0.266667  0.066667  0.466667     16.000000
  0.333333  0.333333  0.066667     16.000000
  0.066667  0.333333  0.333333      8.000000
  0.400000  0.333333  0.066667     16.000000
  0.066667  0.400000  0.333333     16.000000
  0.333333  0.066667  0.400000     16.000000
  0.466667  0.333333  0.066667     16.000000
  0.066667  0.466667  0.333333     16.000000
  0.333333  0.066667  0.466667     16.000000
  0.400000  0.400000  0.066667     16.000000
  0.066667  0.400000  0.400000      8.000000
  0.466667  0.400000  0.066667     16.000000
  0.066667  0.466667  0.400000     16.000000
  0.400000  0.066667  0.466667     16.000000
  0.466667  0.466667  0.066667     16.000000
  0.066667  0.466667  0.466667      8.000000
  0.133333  0.133333  0.133333      8.000000
  0.200000  0.133333  0.133333      8.000000
  0.133333  0.200000  0.133333     16.000000
  0.266667  0.133333  0.133333      8.000000
  0.133333  0.266667  0.133333     16.000000
  0.333333  0.133333  0.133333      8.000000
  0.133333  0.333333  0.133333     16.000000
  0.400000  0.133333  0.133333      8.000000
  0.133333  0.400000  0.133333     16.000000
  0.466667  0.133333  0.133333      8.000000
  0.133333  0.466667  0.133333     16.000000
  0.200000  0.200000  0.133333     16.000000
  0.133333  0.200000  0.200000      8.000000
  0.266667  0.200000  0.133333     16.000000
  0.133333  0.266667  0.200000     16.000000
  0.200000  0.133333  0.266667     16.000000
  0.333333  0.200000  0.133333     16.000000
  0.133333  0.333333  0.200000     16.000000
  0.200000  0.133333  0.333333     16.000000
  0.400000  0.200000  0.133333     16.000000
  0.133333  0.400000  0.200000     16.000000
  0.200000  0.133333  0.400000     16.000000
  0.466667  0.200000  0.133333     16.000000
  0.133333  0.466667  0.200000     16.000000
  0.200000  0.133333  0.466667     16.000000
  0.266667  0.266667  0.133333     16.000000
  0.133333  0.266667  0.266667      8.000000
  0.333333  0.266667  0.133333     16.000000
  0.133333  0.333333  0.266667     16.000000
  0.266667  0.133333  0.333333     16.000000
  0.400000  0.266667  0.133333     16.000000
  0.133333  0.400000  0.266667     16.000000
  0.266667  0.133333  0.400000     16.000000
  0.466667  0.266667  0.133333     16.000000
  0.133333  0.466667  0.266667     16.000000
  0.266667  0.133333  0.466667     16.000000
  0.333333  0.333333  0.133333     16.000000
  0.133333  0.333333  0.333333      8.000000
  0.400000  0.333333  0.133333     16.000000
  0.133333  0.400000  0.333333     16.000000
  0.333333  0.133333  0.400000     16.000000
  0.466667  0.333333  0.133333     16.000000
  0.133333  0.466667  0.333333     16.000000
  0.333333  0.133333  0.466667     16.000000
  0.400000  0.400000  0.133333     16.000000
  0.133333  0.400000  0.400000      8.000000
  0.466667  0.400000  0.133333     16.000000
  0.133333  0.466667  0.400000     16.000000
  0.400000  0.133333  0.466667     16.000000
  0.466667  0.466667  0.133333     16.000000
  0.133333  0.466667  0.466667      8.000000
  0.200000  0.200000  0.200000      8.000000
  0.266667  0.200000  0.200000      8.000000
  0.200000  0.266667  0.200000     16.000000
  0.333333  0.200000  0.200000      8.000000
  0.200000  0.333333  0.200000     16.000000
  0.400000  0.200000  0.200000      8.000000
  0.200000  0.400000  0.200000     16.000000
  0.466667  0.200000  0.200000      8.000000
  0.200000  0.466667  0.200000     16.000000
  0.266667  0.266667  0.200000     16.000000
  0.200000  0.266667  0.266667      8.000000
  0.333333  0.266667  0.200000     16.000000
  0.200000  0.333333  0.266667     16.000000
  0.266667  0.200000  0.333333     16.000000
  0.400000  0.266667  0.200000     16.000000
  0.200000  0.400000  0.266667     16.000000
  0.266667  0.200000  0.400000     16.000000
  0.466667  0.266667  0.200000     16.000000
  0.200000  0.466667  0.266667     16.000000
  0.266667  0.200000  0.466667     16.000000
  0.333333  0.333333  0.200000     16.000000
  0.200000  0.333333  0.333333      8.000000
  0.400000  0.333333  0.200000     16.000000
  0.200000  0.400000  0.333333     16.000000
  0.333333  0.200000  0.400000     16.000000
  0.466667  0.333333  0.200000     16.000000
  0.200000  0.466667  0.333333     16.000000
  0.333333  0.200000  0.466667     16.000000
  0.400000  0.400000  0.200000     16.000000
  0.200000  0.400000  0.400000      8.000000
  0.466667  0.400000  0.200000     16.000000
  0.200000  0.466667  0.400000     16.000000
  0.400000  0.200000  0.466667     16.000000
  0.466667  0.466667  0.200000     16.000000
  0.200000  0.466667  0.466667      8.000000
  0.266667  0.266667  0.266667      8.000000
  0.333333  0.266667  0.266667      8.000000
  0.266667  0.333333  0.266667     16.000000
  0.400000  0.266667  0.266667      8.000000
  0.266667  0.400000  0.266667     16.000000
  0.466667  0.266667  0.266667      8.000000
  0.266667  0.466667  0.266667     16.000000
  0.333333  0.333333  0.266667     16.000000
  0.266667  0.333333  0.333333      8.000000
  0.400000  0.333333  0.266667     16.000000
  0.266667  0.400000  0.333333     16.000000
  0.333333  0.266667  0.400000     16.000000
  0.466667  0.333333  0.266667     16.000000
  0.266667  0.466667  0.333333     16.000000
  0.333333  0.266667  0.466667     16.000000
  0.400000  0.400000  0.266667     16.000000
  0.266667  0.400000  0.400000      8.000000
  0.466667  0.400000  0.266667     16.000000
  0.266667  0.466667  0.400000     16.000000
  0.400000  0.266667  0.466667     16.000000
  0.466667  0.466667  0.266667     16.000000
  0.266667  0.466667  0.466667      8.000000
  0.333333  0.333333  0.333333      8.000000
  0.400000  0.333333  0.333333      8.000000
  0.333333  0.400000  0.333333     16.000000
  0.466667  0.333333  0.333333      8.000000
  0.333333  0.466667  0.333333     16.000000
  0.400000  0.400000  0.333333     16.000000
  0.333333  0.400000  0.400000      8.000000
  0.466667  0.400000  0.333333     16.000000
  0.333333  0.466667  0.400000     16.000000
  0.400000  0.333333  0.466667     16.000000
  0.466667  0.466667  0.333333     16.000000
  0.333333  0.466667  0.466667      8.000000
  0.400000  0.400000  0.400000      8.000000
  0.466667  0.400000  0.400000      8.000000
  0.400000  0.466667  0.400000     16.000000
  0.466667  0.466667  0.400000     16.000000
  0.400000  0.466667  0.466667      8.000000
  0.466667  0.466667  0.466667      8.000000
 
 Following cartesian coordinates:
            Coordinates               Weight
  0.000000  0.000000  0.000000      1.000000
  0.006457  0.000000  0.000000      2.000000
  0.000000  0.006457  0.000000      4.000000
  0.012914  0.000000  0.000000      2.000000
  0.000000  0.012914  0.000000      4.000000
  0.019370  0.000000  0.000000      2.000000
  0.000000  0.019370  0.000000      4.000000
  0.025827  0.000000  0.000000      2.000000
  0.000000  0.025827  0.000000      4.000000
  0.032284  0.000000  0.000000      2.000000
  0.000000  0.032284  0.000000      4.000000
  0.038741  0.000000  0.000000      2.000000
  0.000000  0.038741  0.000000      4.000000
  0.045198  0.000000  0.000000      2.000000
  0.000000  0.045198  0.000000      4.000000
  0.006457  0.006457  0.000000      8.000000
  0.000000  0.006457  0.006457      4.000000
  0.012914  0.006457  0.000000      8.000000
  0.000000  0.012914  0.006457      8.000000
  0.006457  0.000000  0.012914      8.000000
  0.019370  0.006457  0.000000      8.000000
  0.000000  0.019370  0.006457      8.000000
  0.006457  0.000000  0.019370      8.000000
  0.025827  0.006457  0.000000      8.000000
  0.000000  0.025827  0.006457      8.000000
  0.006457  0.000000  0.025827      8.000000
  0.032284  0.006457  0.000000      8.000000
  0.000000  0.032284  0.006457      8.000000
  0.006457  0.000000  0.032284      8.000000
  0.038741  0.006457  0.000000      8.000000
  0.000000  0.038741  0.006457      8.000000
  0.006457  0.000000  0.038741      8.000000
  0.045198  0.006457  0.000000      8.000000
  0.000000  0.045198  0.006457      8.000000
  0.006457  0.000000  0.045198      8.000000
  0.012914  0.012914  0.000000      8.000000
  0.000000  0.012914  0.012914      4.000000
  0.019370  0.012914  0.000000      8.000000
  0.000000  0.019370  0.012914      8.000000
  0.012914  0.000000  0.019370      8.000000
  0.025827  0.012914  0.000000      8.000000
  0.000000  0.025827  0.012914      8.000000
  0.012914  0.000000  0.025827      8.000000
  0.032284  0.012914  0.000000      8.000000
  0.000000  0.032284  0.012914      8.000000
  0.012914  0.000000  0.032284      8.000000
  0.038741  0.012914  0.000000      8.000000
  0.000000  0.038741  0.012914      8.000000
  0.012914  0.000000  0.038741      8.000000
  0.045198  0.012914  0.000000      8.000000
  0.000000  0.045198  0.012914      8.000000
  0.012914  0.000000  0.045198      8.000000
  0.019370  0.019370  0.000000      8.000000
  0.000000  0.019370  0.019370      4.000000
  0.025827  0.019370  0.000000      8.000000
  0.000000  0.025827  0.019370      8.000000
  0.019370  0.000000  0.025827      8.000000
  0.032284  0.019370  0.000000      8.000000
  0.000000  0.032284  0.019370      8.000000
  0.019370  0.000000  0.032284      8.000000
  0.038741  0.019370  0.000000      8.000000
  0.000000  0.038741  0.019370      8.000000
  0.019370  0.000000  0.038741      8.000000
  0.045198  0.019370  0.000000      8.000000
  0.000000  0.045198  0.019370      8.000000
  0.019370  0.000000  0.045198      8.000000
  0.025827  0.025827  0.000000      8.000000
  0.000000  0.025827  0.025827      4.000000
  0.032284  0.025827  0.000000      8.000000
  0.000000  0.032284  0.025827      8.000000
  0.025827  0.000000  0.032284      8.000000
  0.038741  0.025827  0.000000      8.000000
  0.000000  0.038741  0.025827      8.000000
  0.025827  0.000000  0.038741      8.000000
  0.045198  0.025827  0.000000      8.000000
  0.000000  0.045198  0.025827      8.000000
  0.025827  0.000000  0.045198      8.000000
  0.032284  0.032284  0.000000      8.000000
  0.000000  0.032284  0.032284      4.000000
  0.038741  0.032284  0.000000      8.000000
  0.000000  0.038741  0.032284      8.000000
  0.032284  0.000000  0.038741      8.000000
  0.045198  0.032284  0.000000      8.000000
  0.000000  0.045198  0.032284      8.000000
  0.032284  0.000000  0.045198      8.000000
  0.038741  0.038741  0.000000      8.000000
  0.000000  0.038741  0.038741      4.000000
  0.045198  0.038741  0.000000      8.000000
  0.000000  0.045198  0.038741      8.000000
  0.038741  0.000000  0.045198      8.000000
  0.045198  0.045198  0.000000      8.000000
  0.000000  0.045198  0.045198      4.000000
  0.006457  0.006457  0.006457      8.000000
  0.012914  0.006457  0.006457      8.000000
  0.006457  0.012914  0.006457     16.000000
  0.019370  0.006457  0.006457      8.000000
  0.006457  0.019370  0.006457     16.000000
  0.025827  0.006457  0.006457      8.000000
  0.006457  0.025827  0.006457     16.000000
  0.032284  0.006457  0.006457      8.000000
  0.006457  0.032284  0.006457     16.000000
  0.038741  0.006457  0.006457      8.000000
  0.006457  0.038741  0.006457     16.000000
  0.045198  0.006457  0.006457      8.000000
  0.006457  0.045198  0.006457     16.000000
  0.012914  0.012914  0.006457     16.000000
  0.006457  0.012914  0.012914      8.000000
  0.019370  0.012914  0.006457     16.000000
  0.006457  0.019370  0.012914     16.000000
  0.012914  0.006457  0.019370     16.000000
  0.025827  0.012914  0.006457     16.000000
  0.006457  0.025827  0.012914     16.000000
  0.012914  0.006457  0.025827     16.000000
  0.032284  0.012914  0.006457     16.000000
  0.006457  0.032284  0.012914     16.000000
  0.012914  0.006457  0.032284     16.000000
  0.038741  0.012914  0.006457     16.000000
  0.006457  0.038741  0.012914     16.000000
  0.012914  0.006457  0.038741     16.000000
  0.045198  0.012914  0.006457     16.000000
  0.006457  0.045198  0.012914     16.000000
  0.012914  0.006457  0.045198     16.000000
  0.019370  0.019370  0.006457     16.000000
  0.006457  0.019370  0.019370      8.000000
  0.025827  0.019370  0.006457     16.000000
  0.006457  0.025827  0.019370     16.000000
  0.019370  0.006457  0.025827     16.000000
  0.032284  0.019370  0.006457     16.000000
  0.006457  0.032284  0.019370     16.000000
  0.019370  0.006457  0.032284     16.000000
  0.038741  0.019370  0.006457     16.000000
  0.006457  0.038741  0.019370     16.000000
  0.019370  0.006457  0.038741     16.000000
  0.045198  0.019370  0.006457     16.000000
  0.006457  0.045198  0.019370     16.000000
  0.019370  0.006457  0.045198     16.000000
  0.025827  0.025827  0.006457     16.000000
  0.006457  0.025827  0.025827      8.000000
  0.032284  0.025827  0.006457     16.000000
  0.006457  0.032284  0.025827     16.000000
  0.025827  0.006457  0.032284     16.000000
  0.038741  0.025827  0.006457     16.000000
  0.006457  0.038741  0.025827     16.000000
  0.025827  0.006457  0.038741     16.000000
  0.045198  0.025827  0.006457     16.000000
  0.006457  0.045198  0.025827     16.000000
  0.025827  0.006457  0.045198     16.000000
  0.032284  0.032284  0.006457     16.000000
  0.006457  0.032284  0.032284      8.000000
  0.038741  0.032284  0.006457     16.000000
  0.006457  0.038741  0.032284     16.000000
  0.032284  0.006457  0.038741     16.000000
  0.045198  0.032284  0.006457     16.000000
  0.006457  0.045198  0.032284     16.000000
  0.032284  0.006457  0.045198     16.000000
  0.038741  0.038741  0.006457     16.000000
  0.006457  0.038741  0.038741      8.000000
  0.045198  0.038741  0.006457     16.000000
  0.006457  0.045198  0.038741     16.000000
  0.038741  0.006457  0.045198     16.000000
  0.045198  0.045198  0.006457     16.000000
  0.006457  0.045198  0.045198      8.000000
  0.012914  0.012914  0.012914      8.000000
  0.019370  0.012914  0.012914      8.000000
  0.012914  0.019370  0.012914     16.000000
  0.025827  0.012914  0.012914      8.000000
  0.012914  0.025827  0.012914     16.000000
  0.032284  0.012914  0.012914      8.000000
  0.012914  0.032284  0.012914     16.000000
  0.038741  0.012914  0.012914      8.000000
  0.012914  0.038741  0.012914     16.000000
  0.045198  0.012914  0.012914      8.000000
  0.012914  0.045198  0.012914     16.000000
  0.019370  0.019370  0.012914     16.000000
  0.012914  0.019370  0.019370      8.000000
  0.025827  0.019370  0.012914     16.000000
  0.012914  0.025827  0.019370     16.000000
  0.019370  0.012914  0.025827     16.000000
  0.032284  0.019370  0.012914     16.000000
  0.012914  0.032284  0.019370     16.000000
  0.019370  0.012914  0.032284     16.000000
  0.038741  0.019370  0.012914     16.000000
  0.012914  0.038741  0.019370     16.000000
  0.019370  0.012914  0.038741     16.000000
  0.045198  0.019370  0.012914     16.000000
  0.012914  0.045198  0.019370     16.000000
  0.019370  0.012914  0.045198     16.000000
  0.025827  0.025827  0.012914     16.000000
  0.012914  0.025827  0.025827      8.000000
  0.032284  0.025827  0.012914     16.000000
  0.012914  0.032284  0.025827     16.000000
  0.025827  0.012914  0.032284     16.000000
  0.038741  0.025827  0.012914     16.000000
  0.012914  0.038741  0.025827     16.000000
  0.025827  0.012914  0.038741     16.000000
  0.045198  0.025827  0.012914     16.000000
  0.012914  0.045198  0.025827     16.000000
  0.025827  0.012914  0.045198     16.000000
  0.032284  0.032284  0.012914     16.000000
  0.012914  0.032284  0.032284      8.000000
  0.038741  0.032284  0.012914     16.000000
  0.012914  0.038741  0.032284     16.000000
  0.032284  0.012914  0.038741     16.000000
  0.045198  0.032284  0.012914     16.000000
  0.012914  0.045198  0.032284     16.000000
  0.032284  0.012914  0.045198     16.000000
  0.038741  0.038741  0.012914     16.000000
  0.012914  0.038741  0.038741      8.000000
  0.045198  0.038741  0.012914     16.000000
  0.012914  0.045198  0.038741     16.000000
  0.038741  0.012914  0.045198     16.000000
  0.045198  0.045198  0.012914     16.000000
  0.012914  0.045198  0.045198      8.000000
  0.019370  0.019370  0.019370      8.000000
  0.025827  0.019370  0.019370      8.000000
  0.019370  0.025827  0.019370     16.000000
  0.032284  0.019370  0.019370      8.000000
  0.019370  0.032284  0.019370     16.000000
  0.038741  0.019370  0.019370      8.000000
  0.019370  0.038741  0.019370     16.000000
  0.045198  0.019370  0.019370      8.000000
  0.019370  0.045198  0.019370     16.000000
  0.025827  0.025827  0.019370     16.000000
  0.019370  0.025827  0.025827      8.000000
  0.032284  0.025827  0.019370     16.000000
  0.019370  0.032284  0.025827     16.000000
  0.025827  0.019370  0.032284     16.000000
  0.038741  0.025827  0.019370     16.000000
  0.019370  0.038741  0.025827     16.000000
  0.025827  0.019370  0.038741     16.000000
  0.045198  0.025827  0.019370     16.000000
  0.019370  0.045198  0.025827     16.000000
  0.025827  0.019370  0.045198     16.000000
  0.032284  0.032284  0.019370     16.000000
  0.019370  0.032284  0.032284      8.000000
  0.038741  0.032284  0.019370     16.000000
  0.019370  0.038741  0.032284     16.000000
  0.032284  0.019370  0.038741     16.000000
  0.045198  0.032284  0.019370     16.000000
  0.019370  0.045198  0.032284     16.000000
  0.032284  0.019370  0.045198     16.000000
  0.038741  0.038741  0.019370     16.000000
  0.019370  0.038741  0.038741      8.000000
  0.045198  0.038741  0.019370     16.000000
  0.019370  0.045198  0.038741     16.000000
  0.038741  0.019370  0.045198     16.000000
  0.045198  0.045198  0.019370     16.000000
  0.019370  0.045198  0.045198      8.000000
  0.025827  0.025827  0.025827      8.000000
  0.032284  0.025827  0.025827      8.000000
  0.025827  0.032284  0.025827     16.000000
  0.038741  0.025827  0.025827      8.000000
  0.025827  0.038741  0.025827     16.000000
  0.045198  0.025827  0.025827      8.000000
  0.025827  0.045198  0.025827     16.000000
  0.032284  0.032284  0.025827     16.000000
  0.025827  0.032284  0.032284      8.000000
  0.038741  0.032284  0.025827     16.000000
  0.025827  0.038741  0.032284     16.000000
  0.032284  0.025827  0.038741     16.000000
  0.045198  0.032284  0.025827     16.000000
  0.025827  0.045198  0.032284     16.000000
  0.032284  0.025827  0.045198     16.000000
  0.038741  0.038741  0.025827     16.000000
  0.025827  0.038741  0.038741      8.000000
  0.045198  0.038741  0.025827     16.000000
  0.025827  0.045198  0.038741     16.000000
  0.038741  0.025827  0.045198     16.000000
  0.045198  0.045198  0.025827     16.000000
  0.025827  0.045198  0.045198      8.000000
  0.032284  0.032284  0.032284      8.000000
  0.038741  0.032284  0.032284      8.000000
  0.032284  0.038741  0.032284     16.000000
  0.045198  0.032284  0.032284      8.000000
  0.032284  0.045198  0.032284     16.000000
  0.038741  0.038741  0.032284     16.000000
  0.032284  0.038741  0.038741      8.000000
  0.045198  0.038741  0.032284     16.000000
  0.032284  0.045198  0.038741     16.000000
  0.038741  0.032284  0.045198     16.000000
  0.045198  0.045198  0.032284     16.000000
  0.032284  0.045198  0.045198      8.000000
  0.038741  0.038741  0.038741      8.000000
  0.045198  0.038741  0.038741      8.000000
  0.038741  0.045198  0.038741     16.000000
  0.045198  0.045198  0.038741     16.000000
  0.038741  0.045198  0.045198      8.000000
  0.045198  0.045198  0.045198      8.000000
 


--------------------------------------------------------------------------------------------------------




 Dimension of arrays:
   k-points           NKPTS =    288   k-points in BZ     NKDIM =    288   number of bands    NBANDS=      6
   number of dos      NEDOS =    301   number of ions     NIONS =      3
   non local maximal  LDIM  =      5   non local SUM 2l+1 LMDIM =     13
   total plane-waves  NPLWV = 175616
   max r-space proj   IRMAX =      1   max aug-charges    IRDMAX=   5616
   dimension x,y,z NGX =    56 NGY =   56 NGZ =   56
   dimension x,y,z NGXF=   112 NGYF=  112 NGZF=  112
   support grid    NGXF=   112 NGYF=  112 NGZF=  112
   ions per type =               2   1
   NGX,Y,Z   is equivalent  to a cutoff of   9.02,  9.02,  9.02 a.u.
   NGXF,Y,Z  is equivalent  to a cutoff of  18.03, 18.03, 18.03 a.u.

 SYSTEM =  unknown system                          
 POSCAR =  BeH2                                    

 Startparameter for this run:
   NWRITE =      2    write-flag & timer
   PREC   = normal    normal or accurate (medium, high low for compatibility)
   ISTART =      0    job   : 0-new  1-cont  2-samecut
   ICHARG =      2    charge: 1-file 2-atom 10-const
   ISPIN  =      1    spin polarized calculation?
   LNONCOLLINEAR =      F non collinear calculations
   LSORBIT =      F    spin-orbit coupling
   INIWAV =      1    electr: 0-lowe 1-rand  2-diag
   LASPH  =      F    aspherical Exc in radial PAW
 Electronic Relaxation 1
   ENCUT  =  500.0 eV  36.75 Ry    6.06 a.u.  18.82 18.82 18.82*2*pi/ulx,y,z
   ENINI  =  500.0     initial cutoff
   ENAUG  =  528.0 eV  augmentation charge cutoff
   NELM   =     60;   NELMIN=  2; NELMDL=  0     # of ELM steps 
   EDIFF  = 0.1E-06   stopping-criterion for ELM
   LREAL  =      F    real-space projection
   NLSPLINE    = F    spline interpolate recip. space projectors
   LCOMPAT=      F    compatible to vasp.4.4
   GGA_COMPAT  = T    GGA compatible to vasp.4.4-vasp.4.6
   LMAXPAW     = -100 max onsite density
   LMAXMIX     =    2 max onsite mixed and CHGCAR
   VOSKOWN=      0    Vosko Wilk Nusair interpolation
   ROPT   =    0.00000   0.00000
 Ionic relaxation
   EDIFFG = 0.1E-05   stopping-criterion for IOM
   NSW    =    100    number of steps for IOM
   NBLOCK =      1;   KBLOCK =    100    inner block; outer block 
   IBRION =      2    ionic relax: 0-MD 1-quasi-New 2-CG
   NFREE  =      1    steps in history (QN), initial steepest desc. (CG)
   ISIF   =      2    stress and relaxation
   IWAVPR =     11    prediction:  0-non 1-charg 2-wave 3-comb
   ISYM   =      2    0-nonsym 1-usesym 2-fastsym
   LCORR  =      T    Harris-Foulkes like correction to forces

   POTIM  = 0.5000    time-step for ionic-motion
   TEIN   =    0.0    initial temperature
   TEBEG  =    0.0;   TEEND  =   0.0 temperature during run
   SMASS  =  -3.00    Nose mass-parameter (am)
   estimated Nose-frequenzy (Omega)   =  0.10E-29 period in steps = 0.13E+47 mass=  -0.244E-26a.u.
   SCALEE = 1.0000    scale energy and forces
   NPACO  =    256;   APACO  = 16.0  distance and # of slots for P.C.
   PSTRESS=    0.0 pullay stress

  Mass of Ions in am
   POMASS =   1.00  9.01
  Ionic Valenz
   ZVAL   =   1.00  2.00
  Atomic Wigner-Seitz radii
   RWIGS  =  -1.00 -1.00
  virtual crystal weights 
   VCA    =   1.00  1.00
   NELECT =       4.0000    total number of electrons
   NUPDOWN=      -1.0000    fix difference up-down

 DOS related values:
   EMIN   =  10.00;   EMAX   =-10.00  energy-range for DOS
   EFERMI =   0.00
   ISMEAR =     0;   SIGMA  =   0.20  broadening in eV -4-tet -1-fermi 0-gaus

 Electronic relaxation 2 (details)
   IALGO  =     38    algorithm
   LDIAG  =      T    sub-space diagonalisation (order eigenvalues)
   LSUBROT=      F    optimize rotation matrix (better conditioning)
   TURBO    =      0    0=normal 1=particle mesh
   IRESTART =      0    0=no restart 2=restart with 2 vectors
   NREBOOT  =      0    no. of reboots
   NMIN     =      0    reboot dimension
   EREF     =   0.00    reference energy to select bands
   IMIX   =      4    mixing-type and parameters
     AMIX     =   0.40;   BMIX     =  1.00
     AMIX_MAG =   1.60;   BMIX_MAG =  1.00
     AMIN     =   0.10
     WC   =   100.;   INIMIX=   1;  MIXPRE=   1;  MAXMIX= -45

 Intra band minimization:
   WEIMIN = 0.0010     energy-eigenvalue tresh-hold
   EBREAK =  0.42E-08  absolut break condition
   DEPER  =   0.30     relativ break condition  

   TIME   =   0.40     timestep for ELM

  volume/ion in A,a.u.               =     366.90      2475.97
  Fermi-wavevector in a.u.,A,eV,Ry     =   0.251693  0.475631  0.861922  0.063349
  Thomas-Fermi vector in A             =   1.069768

 Write flags
   LWAVE        =      T    write WAVECAR
   LDOWNSAMPLE  =      F    k-point downsampling of WAVECAR
   LCHARG       =      T    write CHGCAR
   LVTOT        =      F    write LOCPOT, total local potential
   LVHAR        =      F    write LOCPOT, Hartree potential only
   LELF         =      F    write electronic localiz. function (ELF)
   LORBIT       =      0    0 simple, 1 ext, 2 COOP (PROOUT), +10 PAW based schemes


 Dipole corrections
   LMONO  =      F    monopole corrections only (constant potential shift)
   LDIPOL =      F    correct potential (dipole corrections)
   IDIPOL =      0    1-x, 2-y, 3-z, 4-all directions 
   EPSILON=  1.0000000 bulk dielectric constant

 Exchange correlation treatment:
   GGA     =    --    GGA type
   LEXCH   =     8    internal setting for exchange type
   VOSKOWN=      0    Vosko Wilk Nusair interpolation
   LHFCALC =     F    Hartree Fock is set to
   LHFONE  =     F    Hartree Fock one center treatment
   AEXX    =    0.0000 exact exchange contribution

 Linear response parameters
   LEPSILON=     F    determine dielectric tensor
   LRPA    =     F    only Hartree local field effects (RPA)
   LNABLA  =     F    use nabla operator in PAW spheres
   LVEL    =     F    velocity operator in full k-point grid
   LINTERFAST=   F  fast interpolation
   KINTER  =     0    interpolate to denser k-point grid
   CSHIFT  =0.1000    complex shift for real part using Kramers Kronig
   OMEGAMAX=  -1.0    maximum frequency
   DEG_THRESHOLD= 0.2000000E-02 threshold for treating states as degnerate
   RTIME   =   -0.100 relaxation time in fs
  (WPLASMAI=    0.000 imaginary part of plasma frequency in eV, 0.658/RTIME)
   DFIELD  = 0.0000000 0.0000000 0.0000000 field for delta impulse in time

 Orbital magnetization related:
   ORBITALMAG=     F  switch on orbital magnetization
   LCHIMAG   =     F  perturbation theory with respect to B field
   DQ        =  0.001000  dq finite difference perturbation B field
   LLRAUG    =     F  two centre corrections for induced B field



--------------------------------------------------------------------------------------------------------


 conjugate gradient relaxation of ions
 charge density and potential will be updated during run
 non-spin polarized calculation
 Variant of blocked Davidson
 Davidson routine will perform the subspace rotation
 perform sub-space diagonalisation
    after iterative eigenvector-optimisation
 modified Broyden-mixing scheme, WC =      100.0
 initial mixing is a Kerker type mixing with AMIX =  0.4000 and BMIX =      1.0000
 Hartree-type preconditioning will be used
 using additional bands            4
 reciprocal scheme for non local part
 use partial core corrections
 calculate Harris-corrections to forces   (improved forces if not selfconsistent)
 use gradient corrections 
 use of overlap-Matrix (Vanderbilt PP)
 Gauss-broadening in eV      SIGMA  =   0.20


--------------------------------------------------------------------------------------------------------


  energy-cutoff  :      500.00
  volume of cell :     1100.70
      direct lattice vectors                 reciprocal lattice vectors
    10.325000048  0.000000000  0.000000000     0.096852300  0.000000000  0.000000000
     0.000000000 10.325000048  0.000000000     0.000000000  0.096852300  0.000000000
     0.000000000  0.000000000 10.325000048     0.000000000  0.000000000  0.096852300

  length of vectors
    10.325000048 10.325000048 10.325000048     0.096852300  0.096852300  0.096852300



 k-points in units of 2pi/SCALE and weight: KPOINTS created by Atomic Simulation Env
   0.00000000  0.00000000  0.00000000       0.000
   0.00645682  0.00000000  0.00000000       0.001
   0.00000000  0.00645682  0.00000000       0.001
   0.01291364  0.00000000  0.00000000       0.001
   0.00000000  0.01291364  0.00000000       0.001
   0.01937046  0.00000000  0.00000000       0.001
   0.00000000  0.01937046  0.00000000       0.001
   0.02582728  0.00000000  0.00000000       0.001
   0.00000000  0.02582728  0.00000000       0.001
   0.03228410  0.00000000  0.00000000       0.001
   0.00000000  0.03228410  0.00000000       0.001
   0.03874092  0.00000000  0.00000000       0.001
   0.00000000  0.03874092  0.00000000       0.001
   0.04519774  0.00000000  0.00000000       0.001
   0.00000000  0.04519774  0.00000000       0.001
   0.00645682  0.00645682  0.00000000       0.002
   0.00000000  0.00645682  0.00645682       0.001
   0.01291364  0.00645682  0.00000000       0.002
   0.00000000  0.01291364  0.00645682       0.002
   0.00645682  0.00000000  0.01291364       0.002
   0.01937046  0.00645682  0.00000000       0.002
   0.00000000  0.01937046  0.00645682       0.002
   0.00645682  0.00000000  0.01937046       0.002
   0.02582728  0.00645682  0.00000000       0.002
   0.00000000  0.02582728  0.00645682       0.002
   0.00645682  0.00000000  0.02582728       0.002
   0.03228410  0.00645682  0.00000000       0.002
   0.00000000  0.03228410  0.00645682       0.002
   0.00645682  0.00000000  0.03228410       0.002
   0.03874092  0.00645682  0.00000000       0.002
   0.00000000  0.03874092  0.00645682       0.002
   0.00645682  0.00000000  0.03874092       0.002
   0.04519774  0.00645682  0.00000000       0.002
   0.00000000  0.04519774  0.00645682       0.002
   0.00645682  0.00000000  0.04519774       0.002
   0.01291364  0.01291364  0.00000000       0.002
   0.00000000  0.01291364  0.01291364       0.001
   0.01937046  0.01291364  0.00000000       0.002
   0.00000000  0.01937046  0.01291364       0.002
   0.01291364  0.00000000  0.01937046       0.002
   0.02582728  0.01291364  0.00000000       0.002
   0.00000000  0.02582728  0.01291364       0.002
   0.01291364  0.00000000  0.02582728       0.002
   0.03228410  0.01291364  0.00000000       0.002
   0.00000000  0.03228410  0.01291364       0.002
   0.01291364  0.00000000  0.03228410       0.002
   0.03874092  0.01291364  0.00000000       0.002
   0.00000000  0.03874092  0.01291364       0.002
   0.01291364  0.00000000  0.03874092       0.002
   0.04519774  0.01291364  0.00000000       0.002
   0.00000000  0.04519774  0.01291364       0.002
   0.01291364  0.00000000  0.04519774       0.002
   0.01937046  0.01937046  0.00000000       0.002
   0.00000000  0.01937046  0.01937046       0.001
   0.02582728  0.01937046  0.00000000       0.002
   0.00000000  0.02582728  0.01937046       0.002
   0.01937046  0.00000000  0.02582728       0.002
   0.03228410  0.01937046  0.00000000       0.002
   0.00000000  0.03228410  0.01937046       0.002
   0.01937046  0.00000000  0.03228410       0.002
   0.03874092  0.01937046  0.00000000       0.002
   0.00000000  0.03874092  0.01937046       0.002
   0.01937046  0.00000000  0.03874092       0.002
   0.04519774  0.01937046  0.00000000       0.002
   0.00000000  0.04519774  0.01937046       0.002
   0.01937046  0.00000000  0.04519774       0.002
   0.02582728  0.02582728  0.00000000       0.002
   0.00000000  0.02582728  0.02582728       0.001
   0.03228410  0.02582728  0.00000000       0.002
   0.00000000  0.03228410  0.02582728       0.002
   0.02582728  0.00000000  0.03228410       0.002
   0.03874092  0.02582728  0.00000000       0.002
   0.00000000  0.03874092  0.02582728       0.002
   0.02582728  0.00000000  0.03874092       0.002
   0.04519774  0.02582728  0.00000000       0.002
   0.00000000  0.04519774  0.02582728       0.002
   0.02582728  0.00000000  0.04519774       0.002
   0.03228410  0.03228410  0.00000000       0.002
   0.00000000  0.03228410  0.03228410       0.001
   0.03874092  0.03228410  0.00000000       0.002
   0.00000000  0.03874092  0.03228410       0.002
   0.03228410  0.00000000  0.03874092       0.002
   0.04519774  0.03228410  0.00000000       0.002
   0.00000000  0.04519774  0.03228410       0.002
   0.03228410  0.00000000  0.04519774       0.002
   0.03874092  0.03874092  0.00000000       0.002
   0.00000000  0.03874092  0.03874092       0.001
   0.04519774  0.03874092  0.00000000       0.002
   0.00000000  0.04519774  0.03874092       0.002
   0.03874092  0.00000000  0.04519774       0.002
   0.04519774  0.04519774  0.00000000       0.002
   0.00000000  0.04519774  0.04519774       0.001
   0.00645682  0.00645682  0.00645682       0.002
   0.01291364  0.00645682  0.00645682       0.002
   0.00645682  0.01291364  0.00645682       0.005
   0.01937046  0.00645682  0.00645682       0.002
   0.00645682  0.01937046  0.00645682       0.005
   0.02582728  0.00645682  0.00645682       0.002
   0.00645682  0.02582728  0.00645682       0.005
   0.03228410  0.00645682  0.00645682       0.002
   0.00645682  0.03228410  0.00645682       0.005
   0.03874092  0.00645682  0.00645682       0.002
   0.00645682  0.03874092  0.00645682       0.005
   0.04519774  0.00645682  0.00645682       0.002
   0.00645682  0.04519774  0.00645682       0.005
   0.01291364  0.01291364  0.00645682       0.005
   0.00645682  0.01291364  0.01291364       0.002
   0.01937046  0.01291364  0.00645682       0.005
   0.00645682  0.01937046  0.01291364       0.005
   0.01291364  0.00645682  0.01937046       0.005
   0.02582728  0.01291364  0.00645682       0.005
   0.00645682  0.02582728  0.01291364       0.005
   0.01291364  0.00645682  0.02582728       0.005
   0.03228410  0.01291364  0.00645682       0.005
   0.00645682  0.03228410  0.01291364       0.005
   0.01291364  0.00645682  0.03228410       0.005
   0.03874092  0.01291364  0.00645682       0.005
   0.00645682  0.03874092  0.01291364       0.005
   0.01291364  0.00645682  0.03874092       0.005
   0.04519774  0.01291364  0.00645682       0.005
   0.00645682  0.04519774  0.01291364       0.005
   0.01291364  0.00645682  0.04519774       0.005
   0.01937046  0.01937046  0.00645682       0.005
   0.00645682  0.01937046  0.01937046       0.002
   0.02582728  0.01937046  0.00645682       0.005
   0.00645682  0.02582728  0.01937046       0.005
   0.01937046  0.00645682  0.02582728       0.005
   0.03228410  0.01937046  0.00645682       0.005
   0.00645682  0.03228410  0.01937046       0.005
   0.01937046  0.00645682  0.03228410       0.005
   0.03874092  0.01937046  0.00645682       0.005
   0.00645682  0.03874092  0.01937046       0.005
   0.01937046  0.00645682  0.03874092       0.005
   0.04519774  0.01937046  0.00645682       0.005
   0.00645682  0.04519774  0.01937046       0.005
   0.01937046  0.00645682  0.04519774       0.005
   0.02582728  0.02582728  0.00645682       0.005
   0.00645682  0.02582728  0.02582728       0.002
   0.03228410  0.02582728  0.00645682       0.005
   0.00645682  0.03228410  0.02582728       0.005
   0.02582728  0.00645682  0.03228410       0.005
   0.03874092  0.02582728  0.00645682       0.005
   0.00645682  0.03874092  0.02582728       0.005
   0.02582728  0.00645682  0.03874092       0.005
   0.04519774  0.02582728  0.00645682       0.005
   0.00645682  0.04519774  0.02582728       0.005
   0.02582728  0.00645682  0.04519774       0.005
   0.03228410  0.03228410  0.00645682       0.005
   0.00645682  0.03228410  0.03228410       0.002
   0.03874092  0.03228410  0.00645682       0.005
   0.00645682  0.03874092  0.03228410       0.005
   0.03228410  0.00645682  0.03874092       0.005
   0.04519774  0.03228410  0.00645682       0.005
   0.00645682  0.04519774  0.03228410       0.005
   0.03228410  0.00645682  0.04519774       0.005
   0.03874092  0.03874092  0.00645682       0.005
   0.00645682  0.03874092  0.03874092       0.002
   0.04519774  0.03874092  0.00645682       0.005
   0.00645682  0.04519774  0.03874092       0.005
   0.03874092  0.00645682  0.04519774       0.005
   0.04519774  0.04519774  0.00645682       0.005
   0.00645682  0.04519774  0.04519774       0.002
   0.01291364  0.01291364  0.01291364       0.002
   0.01937046  0.01291364  0.01291364       0.002
   0.01291364  0.01937046  0.01291364       0.005
   0.02582728  0.01291364  0.01291364       0.002
   0.01291364  0.02582728  0.01291364       0.005
   0.03228410  0.01291364  0.01291364       0.002
   0.01291364  0.03228410  0.01291364       0.005
   0.03874092  0.01291364  0.01291364       0.002
   0.01291364  0.03874092  0.01291364       0.005
   0.04519774  0.01291364  0.01291364       0.002
   0.01291364  0.04519774  0.01291364       0.005
   0.01937046  0.01937046  0.01291364       0.005
   0.01291364  0.01937046  0.01937046       0.002
   0.02582728  0.01937046  0.01291364       0.005
   0.01291364  0.02582728  0.01937046       0.005
   0.01937046  0.01291364  0.02582728       0.005
   0.03228410  0.01937046  0.01291364       0.005
   0.01291364  0.03228410  0.01937046       0.005
   0.01937046  0.01291364  0.03228410       0.005
   0.03874092  0.01937046  0.01291364       0.005
   0.01291364  0.03874092  0.01937046       0.005
   0.01937046  0.01291364  0.03874092       0.005
   0.04519774  0.01937046  0.01291364       0.005
   0.01291364  0.04519774  0.01937046       0.005
   0.01937046  0.01291364  0.04519774       0.005
   0.02582728  0.02582728  0.01291364       0.005
   0.01291364  0.02582728  0.02582728       0.002
   0.03228410  0.02582728  0.01291364       0.005
   0.01291364  0.03228410  0.02582728       0.005
   0.02582728  0.01291364  0.03228410       0.005
   0.03874092  0.02582728  0.01291364       0.005
   0.01291364  0.03874092  0.02582728       0.005
   0.02582728  0.01291364  0.03874092       0.005
   0.04519774  0.02582728  0.01291364       0.005
   0.01291364  0.04519774  0.02582728       0.005
   0.02582728  0.01291364  0.04519774       0.005
   0.03228410  0.03228410  0.01291364       0.005
   0.01291364  0.03228410  0.03228410       0.002
   0.03874092  0.03228410  0.01291364       0.005
   0.01291364  0.03874092  0.03228410       0.005
   0.03228410  0.01291364  0.03874092       0.005
   0.04519774  0.03228410  0.01291364       0.005
   0.01291364  0.04519774  0.03228410       0.005
   0.03228410  0.01291364  0.04519774       0.005
   0.03874092  0.03874092  0.01291364       0.005
   0.01291364  0.03874092  0.03874092       0.002
   0.04519774  0.03874092  0.01291364       0.005
   0.01291364  0.04519774  0.03874092       0.005
   0.03874092  0.01291364  0.04519774       0.005
   0.04519774  0.04519774  0.01291364       0.005
   0.01291364  0.04519774  0.04519774       0.002
   0.01937046  0.01937046  0.01937046       0.002
   0.02582728  0.01937046  0.01937046       0.002
   0.01937046  0.02582728  0.01937046       0.005
   0.03228410  0.01937046  0.01937046       0.002
   0.01937046  0.03228410  0.01937046       0.005
   0.03874092  0.01937046  0.01937046       0.002
   0.01937046  0.03874092  0.01937046       0.005
   0.04519774  0.01937046  0.01937046       0.002
   0.01937046  0.04519774  0.01937046       0.005
   0.02582728  0.02582728  0.01937046       0.005
   0.01937046  0.02582728  0.02582728       0.002
   0.03228410  0.02582728  0.01937046       0.005
   0.01937046  0.03228410  0.02582728       0.005
   0.02582728  0.01937046  0.03228410       0.005
   0.03874092  0.02582728  0.01937046       0.005
   0.01937046  0.03874092  0.02582728       0.005
   0.02582728  0.01937046  0.03874092       0.005
   0.04519774  0.02582728  0.01937046       0.005
   0.01937046  0.04519774  0.02582728       0.005
   0.02582728  0.01937046  0.04519774       0.005
   0.03228410  0.03228410  0.01937046       0.005
   0.01937046  0.03228410  0.03228410       0.002
   0.03874092  0.03228410  0.01937046       0.005
   0.01937046  0.03874092  0.03228410       0.005
   0.03228410  0.01937046  0.03874092       0.005
   0.04519774  0.03228410  0.01937046       0.005
   0.01937046  0.04519774  0.03228410       0.005
   0.03228410  0.01937046  0.04519774       0.005
   0.03874092  0.03874092  0.01937046       0.005
   0.01937046  0.03874092  0.03874092       0.002
   0.04519774  0.03874092  0.01937046       0.005
   0.01937046  0.04519774  0.03874092       0.005
   0.03874092  0.01937046  0.04519774       0.005
   0.04519774  0.04519774  0.01937046       0.005
   0.01937046  0.04519774  0.04519774       0.002
   0.02582728  0.02582728  0.02582728       0.002
   0.03228410  0.02582728  0.02582728       0.002
   0.02582728  0.03228410  0.02582728       0.005
   0.03874092  0.02582728  0.02582728       0.002
   0.02582728  0.03874092  0.02582728       0.005
   0.04519774  0.02582728  0.02582728       0.002
   0.02582728  0.04519774  0.02582728       0.005
   0.03228410  0.03228410  0.02582728       0.005
   0.02582728  0.03228410  0.03228410       0.002
   0.03874092  0.03228410  0.02582728       0.005
   0.02582728  0.03874092  0.03228410       0.005
   0.03228410  0.02582728  0.03874092       0.005
   0.04519774  0.03228410  0.02582728       0.005
   0.02582728  0.04519774  0.03228410       0.005
   0.03228410  0.02582728  0.04519774       0.005
   0.03874092  0.03874092  0.02582728       0.005
   0.02582728  0.03874092  0.03874092       0.002
   0.04519774  0.03874092  0.02582728       0.005
   0.02582728  0.04519774  0.03874092       0.005
   0.03874092  0.02582728  0.04519774       0.005
   0.04519774  0.04519774  0.02582728       0.005
   0.02582728  0.04519774  0.04519774       0.002
   0.03228410  0.03228410  0.03228410       0.002
   0.03874092  0.03228410  0.03228410       0.002
   0.03228410  0.03874092  0.03228410       0.005
   0.04519774  0.03228410  0.03228410       0.002
   0.03228410  0.04519774  0.03228410       0.005
   0.03874092  0.03874092  0.03228410       0.005
   0.03228410  0.03874092  0.03874092       0.002
   0.04519774  0.03874092  0.03228410       0.005
   0.03228410  0.04519774  0.03874092       0.005
   0.03874092  0.03228410  0.04519774       0.005
   0.04519774  0.04519774  0.03228410       0.005
   0.03228410  0.04519774  0.04519774       0.002
   0.03874092  0.03874092  0.03874092       0.002
   0.04519774  0.03874092  0.03874092       0.002
   0.03874092  0.04519774  0.03874092       0.005
   0.04519774  0.04519774  0.03874092       0.005
   0.03874092  0.04519774  0.04519774       0.002
   0.04519774  0.04519774  0.04519774       0.002

 k-points in reciprocal lattice and weights: KPOINTS created by Atomic Simulation Env
   0.00000000  0.00000000  0.00000000       0.000
   0.06666667  0.00000000  0.00000000       0.001
   0.00000000  0.06666667  0.00000000       0.001
   0.13333333  0.00000000  0.00000000       0.001
   0.00000000  0.13333333  0.00000000       0.001
   0.20000000  0.00000000  0.00000000       0.001
   0.00000000  0.20000000  0.00000000       0.001
   0.26666667  0.00000000  0.00000000       0.001
   0.00000000  0.26666667  0.00000000       0.001
   0.33333333  0.00000000  0.00000000       0.001
   0.00000000  0.33333333  0.00000000       0.001
   0.40000000  0.00000000  0.00000000       0.001
   0.00000000  0.40000000  0.00000000       0.001
   0.46666667  0.00000000  0.00000000       0.001
   0.00000000  0.46666667  0.00000000       0.001
   0.06666667  0.06666667  0.00000000       0.002
   0.00000000  0.06666667  0.06666667       0.001
   0.13333333  0.06666667  0.00000000       0.002
   0.00000000  0.13333333  0.06666667       0.002
   0.06666667  0.00000000  0.13333333       0.002
   0.20000000  0.06666667  0.00000000       0.002
   0.00000000  0.20000000  0.06666667       0.002
   0.06666667  0.00000000  0.20000000       0.002
   0.26666667  0.06666667  0.00000000       0.002
   0.00000000  0.26666667  0.06666667       0.002
   0.06666667  0.00000000  0.26666667       0.002
   0.33333333  0.06666667  0.00000000       0.002
   0.00000000  0.33333333  0.06666667       0.002
   0.06666667  0.00000000  0.33333333       0.002
   0.40000000  0.06666667  0.00000000       0.002
   0.00000000  0.40000000  0.06666667       0.002
   0.06666667  0.00000000  0.40000000       0.002
   0.46666667  0.06666667  0.00000000       0.002
   0.00000000  0.46666667  0.06666667       0.002
   0.06666667  0.00000000  0.46666667       0.002
   0.13333333  0.13333333  0.00000000       0.002
   0.00000000  0.13333333  0.13333333       0.001
   0.20000000  0.13333333  0.00000000       0.002
   0.00000000  0.20000000  0.13333333       0.002
   0.13333333  0.00000000  0.20000000       0.002
   0.26666667  0.13333333  0.00000000       0.002
   0.00000000  0.26666667  0.13333333       0.002
   0.13333333  0.00000000  0.26666667       0.002
   0.33333333  0.13333333  0.00000000       0.002
   0.00000000  0.33333333  0.13333333       0.002
   0.13333333  0.00000000  0.33333333       0.002
   0.40000000  0.13333333  0.00000000       0.002
   0.00000000  0.40000000  0.13333333       0.002
   0.13333333  0.00000000  0.40000000       0.002
   0.46666667  0.13333333  0.00000000       0.002
   0.00000000  0.46666667  0.13333333       0.002
   0.13333333  0.00000000  0.46666667       0.002
   0.20000000  0.20000000  0.00000000       0.002
   0.00000000  0.20000000  0.20000000       0.001
   0.26666667  0.20000000  0.00000000       0.002
   0.00000000  0.26666667  0.20000000       0.002
   0.20000000  0.00000000  0.26666667       0.002
   0.33333333  0.20000000  0.00000000       0.002
   0.00000000  0.33333333  0.20000000       0.002
   0.20000000  0.00000000  0.33333333       0.002
   0.40000000  0.20000000  0.00000000       0.002
   0.00000000  0.40000000  0.20000000       0.002
   0.20000000  0.00000000  0.40000000       0.002
   0.46666667  0.20000000  0.00000000       0.002
   0.00000000  0.46666667  0.20000000       0.002
   0.20000000  0.00000000  0.46666667       0.002
   0.26666667  0.26666667  0.00000000       0.002
   0.00000000  0.26666667  0.26666667       0.001
   0.33333333  0.26666667  0.00000000       0.002
   0.00000000  0.33333333  0.26666667       0.002
   0.26666667  0.00000000  0.33333333       0.002
   0.40000000  0.26666667  0.00000000       0.002
   0.00000000  0.40000000  0.26666667       0.002
   0.26666667  0.00000000  0.40000000       0.002
   0.46666667  0.26666667  0.00000000       0.002
   0.00000000  0.46666667  0.26666667       0.002
   0.26666667  0.00000000  0.46666667       0.002
   0.33333333  0.33333333  0.00000000       0.002
   0.00000000  0.33333333  0.33333333       0.001
   0.40000000  0.33333333  0.00000000       0.002
   0.00000000  0.40000000  0.33333333       0.002
   0.33333333  0.00000000  0.40000000       0.002
   0.46666667  0.33333333  0.00000000       0.002
   0.00000000  0.46666667  0.33333333       0.002
   0.33333333  0.00000000  0.46666667       0.002
   0.40000000  0.40000000  0.00000000       0.002
   0.00000000  0.40000000  0.40000000       0.001
   0.46666667  0.40000000  0.00000000       0.002
   0.00000000  0.46666667  0.40000000       0.002
   0.40000000  0.00000000  0.46666667       0.002
   0.46666667  0.46666667  0.00000000       0.002
   0.00000000  0.46666667  0.46666667       0.001
   0.06666667  0.06666667  0.06666667       0.002
   0.13333333  0.06666667  0.06666667       0.002
   0.06666667  0.13333333  0.06666667       0.005
   0.20000000  0.06666667  0.06666667       0.002
   0.06666667  0.20000000  0.06666667       0.005
   0.26666667  0.06666667  0.06666667       0.002
   0.06666667  0.26666667  0.06666667       0.005
   0.33333333  0.06666667  0.06666667       0.002
   0.06666667  0.33333333  0.06666667       0.005
   0.40000000  0.06666667  0.06666667       0.002
   0.06666667  0.40000000  0.06666667       0.005
   0.46666667  0.06666667  0.06666667       0.002
   0.06666667  0.46666667  0.06666667       0.005
   0.13333333  0.13333333  0.06666667       0.005
   0.06666667  0.13333333  0.13333333       0.002
   0.20000000  0.13333333  0.06666667       0.005
   0.06666667  0.20000000  0.13333333       0.005
   0.13333333  0.06666667  0.20000000       0.005
   0.26666667  0.13333333  0.06666667       0.005
   0.06666667  0.26666667  0.13333333       0.005
   0.13333333  0.06666667  0.26666667       0.005
   0.33333333  0.13333333  0.06666667       0.005
   0.06666667  0.33333333  0.13333333       0.005
   0.13333333  0.06666667  0.33333333       0.005
   0.40000000  0.13333333  0.06666667       0.005
   0.06666667  0.40000000  0.13333333       0.005
   0.13333333  0.06666667  0.40000000       0.005
   0.46666667  0.13333333  0.06666667       0.005
   0.06666667  0.46666667  0.13333333       0.005
   0.13333333  0.06666667  0.46666667       0.005
   0.20000000  0.20000000  0.06666667       0.005
   0.06666667  0.20000000  0.20000000       0.002
   0.26666667  0.20000000  0.06666667       0.005
   0.06666667  0.26666667  0.20000000       0.005
   0.20000000  0.06666667  0.26666667       0.005
   0.33333333  0.20000000  0.06666667       0.005
   0.06666667  0.33333333  0.20000000       0.005
   0.20000000  0.06666667  0.33333333       0.005
   0.40000000  0.20000000  0.06666667       0.005
   0.06666667  0.40000000  0.20000000       0.005
   0.20000000  0.06666667  0.40000000       0.005
   0.46666667  0.20000000  0.06666667       0.005
   0.06666667  0.46666667  0.20000000       0.005
   0.20000000  0.06666667  0.46666667       0.005
   0.26666667  0.26666667  0.06666667       0.005
   0.06666667  0.26666667  0.26666667       0.002
   0.33333333  0.26666667  0.06666667       0.005
   0.06666667  0.33333333  0.26666667       0.005
   0.26666667  0.06666667  0.33333333       0.005
   0.40000000  0.26666667  0.06666667       0.005
   0.06666667  0.40000000  0.26666667       0.005
   0.26666667  0.06666667  0.40000000       0.005
   0.46666667  0.26666667  0.06666667       0.005
   0.06666667  0.46666667  0.26666667       0.005
   0.26666667  0.06666667  0.46666667       0.005
   0.33333333  0.33333333  0.06666667       0.005
   0.06666667  0.33333333  0.33333333       0.002
   0.40000000  0.33333333  0.06666667       0.005
   0.06666667  0.40000000  0.33333333       0.005
   0.33333333  0.06666667  0.40000000       0.005
   0.46666667  0.33333333  0.06666667       0.005
   0.06666667  0.46666667  0.33333333       0.005
   0.33333333  0.06666667  0.46666667       0.005
   0.40000000  0.40000000  0.06666667       0.005
   0.06666667  0.40000000  0.40000000       0.002
   0.46666667  0.40000000  0.06666667       0.005
   0.06666667  0.46666667  0.40000000       0.005
   0.40000000  0.06666667  0.46666667       0.005
   0.46666667  0.46666667  0.06666667       0.005
   0.06666667  0.46666667  0.46666667       0.002
   0.13333333  0.13333333  0.13333333       0.002
   0.20000000  0.13333333  0.13333333       0.002
   0.13333333  0.20000000  0.13333333       0.005
   0.26666667  0.13333333  0.13333333       0.002
   0.13333333  0.26666667  0.13333333       0.005
   0.33333333  0.13333333  0.13333333       0.002
   0.13333333  0.33333333  0.13333333       0.005
   0.40000000  0.13333333  0.13333333       0.002
   0.13333333  0.40000000  0.13333333       0.005
   0.46666667  0.13333333  0.13333333       0.002
   0.13333333  0.46666667  0.13333333       0.005
   0.20000000  0.20000000  0.13333333       0.005
   0.13333333  0.20000000  0.20000000       0.002
   0.26666667  0.20000000  0.13333333       0.005
   0.13333333  0.26666667  0.20000000       0.005
   0.20000000  0.13333333  0.26666667       0.005
   0.33333333  0.20000000  0.13333333       0.005
   0.13333333  0.33333333  0.20000000       0.005
   0.20000000  0.13333333  0.33333333       0.005
   0.40000000  0.20000000  0.13333333       0.005
   0.13333333  0.40000000  0.20000000       0.005
   0.20000000  0.13333333  0.40000000       0.005
   0.46666667  0.20000000  0.13333333       0.005
   0.13333333  0.46666667  0.20000000       0.005
   0.20000000  0.13333333  0.46666667       0.005
   0.26666667  0.26666667  0.13333333       0.005
   0.13333333  0.26666667  0.26666667       0.002
   0.33333333  0.26666667  0.13333333       0.005
   0.13333333  0.33333333  0.26666667       0.005
   0.26666667  0.13333333  0.33333333       0.005
   0.40000000  0.26666667  0.13333333       0.005
   0.13333333  0.40000000  0.26666667       0.005
   0.26666667  0.13333333  0.40000000       0.005
   0.46666667  0.26666667  0.13333333       0.005
   0.13333333  0.46666667  0.26666667       0.005
   0.26666667  0.13333333  0.46666667       0.005
   0.33333333  0.33333333  0.13333333       0.005
   0.13333333  0.33333333  0.33333333       0.002
   0.40000000  0.33333333  0.13333333       0.005
   0.13333333  0.40000000  0.33333333       0.005
   0.33333333  0.13333333  0.40000000       0.005
   0.46666667  0.33333333  0.13333333       0.005
   0.13333333  0.46666667  0.33333333       0.005
   0.33333333  0.13333333  0.46666667       0.005
   0.40000000  0.40000000  0.13333333       0.005
   0.13333333  0.40000000  0.40000000       0.002
   0.46666667  0.40000000  0.13333333       0.005
   0.13333333  0.46666667  0.40000000       0.005
   0.40000000  0.13333333  0.46666667       0.005
   0.46666667  0.46666667  0.13333333       0.005
   0.13333333  0.46666667  0.46666667       0.002
   0.20000000  0.20000000  0.20000000       0.002
   0.26666667  0.20000000  0.20000000       0.002
   0.20000000  0.26666667  0.20000000       0.005
   0.33333333  0.20000000  0.20000000       0.002
   0.20000000  0.33333333  0.20000000       0.005
   0.40000000  0.20000000  0.20000000       0.002
   0.20000000  0.40000000  0.20000000       0.005
   0.46666667  0.20000000  0.20000000       0.002
   0.20000000  0.46666667  0.20000000       0.005
   0.26666667  0.26666667  0.20000000       0.005
   0.20000000  0.26666667  0.26666667       0.002
   0.33333333  0.26666667  0.20000000       0.005
   0.20000000  0.33333333  0.26666667       0.005
   0.26666667  0.20000000  0.33333333       0.005
   0.40000000  0.26666667  0.20000000       0.005
   0.20000000  0.40000000  0.26666667       0.005
   0.26666667  0.20000000  0.40000000       0.005
   0.46666667  0.26666667  0.20000000       0.005
   0.20000000  0.46666667  0.26666667       0.005
   0.26666667  0.20000000  0.46666667       0.005
   0.33333333  0.33333333  0.20000000       0.005
   0.20000000  0.33333333  0.33333333       0.002
   0.40000000  0.33333333  0.20000000       0.005
   0.20000000  0.40000000  0.33333333       0.005
   0.33333333  0.20000000  0.40000000       0.005
   0.46666667  0.33333333  0.20000000       0.005
   0.20000000  0.46666667  0.33333333       0.005
   0.33333333  0.20000000  0.46666667       0.005
   0.40000000  0.40000000  0.20000000       0.005
   0.20000000  0.40000000  0.40000000       0.002
   0.46666667  0.40000000  0.20000000       0.005
   0.20000000  0.46666667  0.40000000       0.005
   0.40000000  0.20000000  0.46666667       0.005
   0.46666667  0.46666667  0.20000000       0.005
   0.20000000  0.46666667  0.46666667       0.002
   0.26666667  0.26666667  0.26666667       0.002
   0.33333333  0.26666667  0.26666667       0.002
   0.26666667  0.33333333  0.26666667       0.005
   0.40000000  0.26666667  0.26666667       0.002
   0.26666667  0.40000000  0.26666667       0.005
   0.46666667  0.26666667  0.26666667       0.002
   0.26666667  0.46666667  0.26666667       0.005
   0.33333333  0.33333333  0.26666667       0.005
   0.26666667  0.33333333  0.33333333       0.002
   0.40000000  0.33333333  0.26666667       0.005
   0.26666667  0.40000000  0.33333333       0.005
   0.33333333  0.26666667  0.40000000       0.005
   0.46666667  0.33333333  0.26666667       0.005
   0.26666667  0.46666667  0.33333333       0.005
   0.33333333  0.26666667  0.46666667       0.005
   0.40000000  0.40000000  0.26666667       0.005
   0.26666667  0.40000000  0.40000000       0.002
   0.46666667  0.40000000  0.26666667       0.005
   0.26666667  0.46666667  0.40000000       0.005
   0.40000000  0.26666667  0.46666667       0.005
   0.46666667  0.46666667  0.26666667       0.005
   0.26666667  0.46666667  0.46666667       0.002
   0.33333333  0.33333333  0.33333333       0.002
   0.40000000  0.33333333  0.33333333       0.002
   0.33333333  0.40000000  0.33333333       0.005
   0.46666667  0.33333333  0.33333333       0.002
   0.33333333  0.46666667  0.33333333       0.005
   0.40000000  0.40000000  0.33333333       0.005
   0.33333333  0.40000000  0.40000000       0.002
   0.46666667  0.40000000  0.33333333       0.005
   0.33333333  0.46666667  0.40000000       0.005
   0.40000000  0.33333333  0.46666667       0.005
   0.46666667  0.46666667  0.33333333       0.005
   0.33333333  0.46666667  0.46666667       0.002
   0.40000000  0.40000000  0.40000000       0.002
   0.46666667  0.40000000  0.40000000       0.002
   0.40000000  0.46666667  0.40000000       0.005
   0.46666667  0.46666667  0.40000000       0.005
   0.40000000  0.46666667  0.46666667       0.002
   0.46666667  0.46666667  0.46666667       0.002

 position of ions in fractional coordinates (direct lattice) 
   0.62881355  0.50000000  0.50000000
   0.37118644  0.50000000  0.50000000
   0.50000000  0.50000000  0.50000000

 position of ions in cartesian coordinates  (Angst):
   6.49249996  5.16250002  5.16250002
   3.83249998  5.16250002  5.16250002
   5.16250002  5.16250002  5.16250002



--------------------------------------------------------------------------------------------------------


 k-point   1 :   0.0000 0.0000 0.0000  plane waves:   28017
 k-point   2 :   0.0667 0.0000 0.0000  plane waves:   27953
 k-point   3 :   0.0000 0.0667 0.0000  plane waves:   27953
 k-point   4 :   0.1333 0.0000 0.0000  plane waves:   27965
 k-point   5 :   0.0000 0.1333 0.0000  plane waves:   27965
 k-point   6 :   0.2000 0.0000 0.0000  plane waves:   27926
 k-point   7 :   0.0000 0.2000 0.0000  plane waves:   27926
 k-point   8 :   0.2667 0.0000 0.0000  plane waves:   27934
 k-point   9 :   0.0000 0.2667 0.0000  plane waves:   27934
 k-point  10 :   0.3333 0.0000 0.0000  plane waves:   27942
 k-point  11 :   0.0000 0.3333 0.0000  plane waves:   27942
 k-point  12 :   0.4000 0.0000 0.0000  plane waves:   27942
 k-point  13 :   0.0000 0.4000 0.0000  plane waves:   27942
 k-point  14 :   0.4667 0.0000 0.0000  plane waves:   27914
 k-point  15 :   0.0000 0.4667 0.0000  plane waves:   27914
 k-point  16 :   0.0667 0.0667 0.0000  plane waves:   27953
 k-point  17 :   0.0000 0.0667 0.0667  plane waves:   27953
 k-point  18 :   0.1333 0.0667 0.0000  plane waves:   27956
 k-point  19 :   0.0000 0.1333 0.0667  plane waves:   27956
 k-point  20 :   0.0667 0.0000 0.1333  plane waves:   27956
 k-point  21 :   0.2000 0.0667 0.0000  plane waves:   27932
 k-point  22 :   0.0000 0.2000 0.0667  plane waves:   27932
 k-point  23 :   0.0667 0.0000 0.2000  plane waves:   27932
 k-point  24 :   0.2667 0.0667 0.0000  plane waves:   27937
 k-point  25 :   0.0000 0.2667 0.0667  plane waves:   27937
 k-point  26 :   0.0667 0.0000 0.2667  plane waves:   27937
 k-point  27 :   0.3333 0.0667 0.0000  plane waves:   27940
 k-point  28 :   0.0000 0.3333 0.0667  plane waves:   27940
 k-point  29 :   0.0667 0.0000 0.3333  plane waves:   27940
 k-point  30 :   0.4000 0.0667 0.0000  plane waves:   27932
 k-point  31 :   0.0000 0.4000 0.0667  plane waves:   27932
 k-point  32 :   0.0667 0.0000 0.4000  plane waves:   27932
 k-point  33 :   0.4667 0.0667 0.0000  plane waves:   27929
 k-point  34 :   0.0000 0.4667 0.0667  plane waves:   27929
 k-point  35 :   0.0667 0.0000 0.4667  plane waves:   27929
 k-point  36 :   0.1333 0.1333 0.0000  plane waves:   27947
 k-point  37 :   0.0000 0.1333 0.1333  plane waves:   27947
 k-point  38 :   0.2000 0.1333 0.0000  plane waves:   27939
 k-point  39 :   0.0000 0.2000 0.1333  plane waves:   27939
 k-point  40 :   0.1333 0.0000 0.2000  plane waves:   27939
 k-point  41 :   0.2667 0.1333 0.0000  plane waves:   27943
 k-point  42 :   0.0000 0.2667 0.1333  plane waves:   27943
 k-point  43 :   0.1333 0.0000 0.2667  plane waves:   27943
 k-point  44 :   0.3333 0.1333 0.0000  plane waves:   27953
 k-point  45 :   0.0000 0.3333 0.1333  plane waves:   27953
 k-point  46 :   0.1333 0.0000 0.3333  plane waves:   27953
 k-point  47 :   0.4000 0.1333 0.0000  plane waves:   27922
 k-point  48 :   0.0000 0.4000 0.1333  plane waves:   27922
 k-point  49 :   0.1333 0.0000 0.4000  plane waves:   27922
 k-point  50 :   0.4667 0.1333 0.0000  plane waves:   27920
 k-point  51 :   0.0000 0.4667 0.1333  plane waves:   27920
 k-point  52 :   0.1333 0.0000 0.4667  plane waves:   27920
 k-point  53 :   0.2000 0.2000 0.0000  plane waves:   27939
 k-point  54 :   0.0000 0.2000 0.2000  plane waves:   27939
 k-point  55 :   0.2667 0.2000 0.0000  plane waves:   27966
[...]
 k-point   248 :       0.2000    0.4667    0.4667
  band No.  band energies     occupation 
      1      -8.2710      2.00000
      2      -7.3453      2.00000
      3      -1.5194      0.00000
      4      -1.5193      0.00000
      5       0.4507      0.00000
      6       0.6710      0.00000

 k-point   249 :       0.2667    0.2667    0.2667
  band No.  band energies     occupation 
      1      -8.2710      2.00000
      2      -7.3453      2.00000
      3      -1.5094      0.00000
      4      -1.5079      0.00000
      5       0.1246      0.00000
      6       0.5875      0.00000

 k-point   250 :       0.3333    0.2667    0.2667
  band No.  band energies     occupation 
      1      -8.2710      2.00000
      2      -7.3454      2.00000
      3      -1.5084      0.00000
      4      -1.5071      0.00000
      5       0.1700      0.00000
      6       0.5151      0.00000

 k-point   251 :       0.2667    0.3333    0.2667
  band No.  band energies     occupation 
      1      -8.2710      2.00000
      2      -7.3453      2.00000
      3      -1.5140      0.00000
      4      -1.5078      0.00000
      5       0.1857      0.00000
      6       0.6260      0.00000

 k-point   252 :       0.4000    0.2667    0.2667
  band No.  band energies     occupation 
      1      -8.2710      2.00000
      2      -7.3454      2.00000
      3      -1.5077      0.00000
      4      -1.5064      0.00000
      5       0.2241      0.00000
      6       0.4390      0.00000

 k-point   253 :       0.2667    0.4000    0.2667
  band No.  band energies     occupation 
      1      -8.2710      2.00000
      2      -7.3453      2.00000
      3      -1.5181      0.00000
      4      -1.5073      0.00000
      5       0.2507      0.00000
      6       0.6387      0.00000

 k-point   254 :       0.4667    0.2667    0.2667
  band No.  band energies     occupation 
      1      -8.2709      2.00000
      2      -7.3455      2.00000
      3      -1.5073      0.00000
      4      -1.5061      0.00000
      5       0.2829      0.00000
      6       0.3680      0.00000

 k-point   255 :       0.2667    0.4667    0.2667
  band No.  band energies     occupation 
      1      -8.2710      2.00000
      2      -7.3453      2.00000
      3      -1.5203      0.00000
      4      -1.5070      0.00000
      5       0.3027      0.00000
      6       0.5729      0.00000

 k-point   256 :       0.3333    0.3333    0.2667
  band No.  band energies     occupation 
      1      -8.2710      2.00000
      2      -7.3454      2.00000
      3      -1.5131      0.00000
      4      -1.5070      0.00000
      5       0.2306      0.00000
      6       0.5610      0.00000

 k-point   257 :       0.2667    0.3333    0.3333
  band No.  band energies     occupation 
      1      -8.2710      2.00000
      2      -7.3453      2.00000
      3      -1.5137      0.00000
      4      -1.5126      0.00000
      5       0.2473      0.00000
      6       0.6613      0.00000

 k-point   258 :       0.4000    0.3333    0.2667
  band No.  band energies     occupation 
      1      -8.2710      2.00000
      2      -7.3454      2.00000
      3      -1.5123      0.00000
      4      -1.5063      0.00000
      5       0.2841      0.00000
      6       0.4888      0.00000

 k-point   259 :       0.2667    0.4000    0.3333
  band No.  band energies     occupation 
      1      -8.2710      2.00000
      2      -7.3453      2.00000
      3      -1.5172      0.00000
      4      -1.5125      0.00000
      5       0.3133      0.00000
      6       0.6720      0.00000

 k-point   260 :       0.3333    0.2667    0.4000
  band No.  band energies     occupation 
      1      -8.2710      2.00000
      2      -7.3454      2.00000
      3      -1.5171      0.00000
      4      -1.5065      0.00000
      5       0.2949      0.00000
      6       0.6074      0.00000

 k-point   261 :       0.4667    0.3333    0.2667
  band No.  band energies     occupation 
      1      -8.2709      2.00000
      2      -7.3455      2.00000
      3      -1.5119      0.00000
      4      -1.5060      0.00000
      5       0.3442      0.00000
      6       0.4182      0.00000

 k-point   262 :       0.2667    0.4667    0.3333
  band No.  band energies     occupation 
      1      -8.2710      2.00000
      2      -7.3453      2.00000
      3      -1.5194      0.00000
      4      -1.5122      0.00000
      5       0.3667      0.00000
      6       0.6163      0.00000

 k-point   263 :       0.3333    0.2667    0.4667
  band No.  band energies     occupation 
      1      -8.2710      2.00000
      2      -7.3454      2.00000
      3      -1.5193      0.00000
      4      -1.5062      0.00000
      5       0.3463      0.00000
      6       0.6133      0.00000

 k-point   264 :       0.4000    0.4000    0.2667
  band No.  band energies     occupation 
      1      -8.2709      2.00000
      2      -7.3454      2.00000
      3      -1.5163      0.00000
      4      -1.5058      0.00000
      5       0.3475      0.00000
      6       0.5414      0.00000

 k-point   265 :       0.2667    0.4000    0.4000
  band No.  band energies     occupation 
      1      -8.2710      2.00000
      2      -7.3453      2.00000
      3      -1.5168      0.00000
      4      -1.5163      0.00000
      5       0.3797      0.00000
      6       0.6914      0.00000

 k-point   266 :       0.4667    0.4000    0.2667
  band No.  band energies     occupation 
      1      -8.2709      2.00000
      2      -7.3455      2.00000
      3      -1.5159      0.00000
      4      -1.5055      0.00000
      5       0.4071      0.00000
      6       0.4736      0.00000

 k-point   267 :       0.2667    0.4667    0.4000
  band No.  band energies     occupation 
      1      -8.2710      2.00000
      2      -7.3453      2.00000
      3      -1.5187      0.00000
      4      -1.5162      0.00000
      5       0.4331      0.00000
      6       0.6661      0.00000

 k-point   268 :       0.4000    0.2667    0.4667
  band No.  band energies     occupation 
      1      -8.2709      2.00000
      2      -7.3454      2.00000
      3      -1.5185      0.00000
      4      -1.5055      0.00000
      5       0.3977      0.00000
      6       0.5812      0.00000

 k-point   269 :       0.4667    0.4667    0.2667
  band No.  band energies     occupation 
      1      -8.2709      2.00000
      2      -7.3455      2.00000
      3      -1.5180      0.00000
      4      -1.5052      0.00000
      5       0.4556      0.00000
      6       0.5178      0.00000

 k-point   270 :       0.2667    0.4667    0.4667
  band No.  band energies     occupation 
      1      -8.2710      2.00000
      2      -7.3453      2.00000
      3      -1.5184      0.00000
      4      -1.5183      0.00000
      5       0.4838      0.00000
      6       0.7084      0.00000

 k-point   271 :       0.3333    0.3333    0.3333
  band No.  band energies     occupation 
      1      -8.2710      2.00000
      2      -7.3454      2.00000
      3      -1.5127      0.00000
      4      -1.5117      0.00000
      5       0.2915      0.00000
      6       0.6066      0.00000

 k-point   272 :       0.4000    0.3333    0.3333
  band No.  band energies     occupation 
      1      -8.2709      2.00000
      2      -7.3454      2.00000
      3      -1.5120      0.00000
      4      -1.5110      0.00000
      5       0.3442      0.00000
      6       0.5397      0.00000

 k-point   273 :       0.3333    0.4000    0.3333
  band No.  band energies     occupation 
      1      -8.2710      2.00000
      2      -7.3454      2.00000
      3      -1.5163      0.00000
      4      -1.5116      0.00000
      5       0.3565      0.00000
      6       0.6520      0.00000

 k-point   274 :       0.4667    0.3333    0.3333
  band No.  band energies     occupation 
      1      -8.2709      2.00000
      2      -7.3455      2.00000
      3      -1.5116      0.00000
      4      -1.5106      0.00000
      5       0.4044      0.00000
      6       0.4707      0.00000

 k-point   275 :       0.3333    0.4667    0.3333
  band No.  band energies     occupation 
      1      -8.2710      2.00000
      2      -7.3454      2.00000
      3      -1.5184      0.00000
      4      -1.5113      0.00000
      5       0.4092      0.00000
      6       0.6572      0.00000

 k-point   276 :       0.4000    0.4000    0.3333
  band No.  band energies     occupation 
      1      -8.2709      2.00000
      2      -7.3454      2.00000
      3      -1.5155      0.00000
      4      -1.5109      0.00000
      5       0.4078      0.00000
      6       0.5934      0.00000

 k-point   277 :       0.3333    0.4000    0.4000
  band No.  band energies     occupation 
      1      -8.2710      2.00000
      2      -7.3454      2.00000
      3      -1.5158      0.00000
      4      -1.5153      0.00000
      5       0.4218      0.00000
      6       0.6947      0.00000

 k-point   278 :       0.4667    0.4000    0.3333
  band No.  band energies     occupation 
      1      -8.2709      2.00000
      2      -7.3455      2.00000
      3      -1.5151      0.00000
      4      -1.5105      0.00000
      5       0.4654      0.00000
      6       0.5298      0.00000

 k-point   279 :       0.3333    0.4667    0.4000
  band No.  band energies     occupation 
      1      -8.2710      2.00000
      2      -7.3454      2.00000
      3      -1.5177      0.00000
      4      -1.5152      0.00000
      5       0.4741      0.00000
      6       0.7073      0.00000

 k-point   280 :       0.4000    0.3333    0.4667
  band No.  band energies     occupation 
      1      -8.2709      2.00000
      2      -7.3454      2.00000
      3      -1.5176      0.00000
      4      -1.5106      0.00000
      5       0.4587      0.00000
      6       0.6346      0.00000

 k-point   281 :       0.4667    0.4667    0.3333
  band No.  band energies     occupation 
      1      -8.2709      2.00000
      2      -7.3455      2.00000
      3      -1.5172      0.00000
      4      -1.5102      0.00000
      5       0.5125      0.00000
      6       0.5778      0.00000

 k-point   282 :       0.3333    0.4667    0.4667
  band No.  band energies     occupation 
      1      -8.2709      2.00000
      2      -7.3454      2.00000
      3      -1.5174      0.00000
      4      -1.5173      0.00000
      5       0.5238      0.00000
      6       0.7526      0.00000

 k-point   283 :       0.4000    0.4000    0.4000
  band No.  band energies     occupation 
      1      -8.2709      2.00000
      2      -7.3454      2.00000
      3      -1.5150      0.00000
      4      -1.5146      0.00000
      5       0.4709      0.00000
      6       0.6483      0.00000

 k-point   284 :       0.4667    0.4000    0.4000
  band No.  band energies     occupation 
      1      -8.2709      2.00000
      2      -7.3455      2.00000
      3      -1.5146      0.00000
      4      -1.5142      0.00000
      5       0.5231      0.00000
      6       0.5936      0.00000

 k-point   285 :       0.4000    0.4667    0.4000
  band No.  band energies     occupation 
      1      -8.2709      2.00000
      2      -7.3454      2.00000
      3      -1.5169      0.00000
      4      -1.5145      0.00000
      5       0.5209      0.00000
      6       0.6911      0.00000

 k-point   286 :       0.4667    0.4667    0.4000
  band No.  band energies     occupation 
      1      -8.2709      2.00000
      2      -7.3455      2.00000
      3      -1.5165      0.00000
      4      -1.5141      0.00000
      5       0.5669      0.00000
      6       0.6459      0.00000

 k-point   287 :       0.4000    0.4667    0.4667
  band No.  band energies     occupation 
      1      -8.2709      2.00000
      2      -7.3454      2.00000
      3      -1.5166      0.00000
      4      -1.5166      0.00000
      5       0.5679      0.00000
      6       0.7344      0.00000

 k-point   288 :       0.4667    0.4667    0.4667
  band No.  band energies     occupation 
      1      -8.2709      2.00000
      2      -7.3455      2.00000
      3      -1.5162      0.00000
      4      -1.5161      0.00000
      5       0.6075      0.00000
      6       0.6991      0.00000


--------------------------------------------------------------------------------------------------------


 soft charge-density along one line, spin component           1
         0         1         2         3         4         5         6         7         8         9
 total charge-density along one line

 pseudopotential strength for first ion, spin component:           1
 -2.317  -3.988  -0.000  -0.000   0.001
 -3.988  -6.777  -0.000  -0.000   0.003
 -0.000  -0.000  -0.349   0.000  -0.000
 -0.000  -0.000   0.000  -0.349  -0.000
  0.001   0.003  -0.000  -0.000  -0.348
 total augmentation occupancy for first ion, spin component:           1
  2.695  -0.373   0.000   0.000  -0.182
 -0.373   0.052  -0.000   0.000   0.025
  0.000   0.000   0.000  -0.000   0.000
 -0.000   0.000  -0.000   0.000  -0.000
 -0.182   0.025  -0.000  -0.000   0.012


------------------------ aborting loop because EDIFF is reached ----------------------------------------


    CHARGE:  cpu time    2.1682: real time    2.1725
    FORLOC:  cpu time    0.0827: real time    0.0829
    FORNL :  cpu time   15.7740: real time   15.8007
    STRESS:  cpu time   96.8611: real time   97.0324
    FORCOR:  cpu time    0.6711: real time    0.6723
    FORHAR:  cpu time    0.2090: real time    0.2094
    MIXING:  cpu time    0.0250: real time    0.0250
    OFIELD:  cpu time    0.0000: real time    0.0000

  FORCE on cell =-STRESS in cart. coord.  units (eV):
  Direction    XX          YY          ZZ          XY          YZ          ZX
  --------------------------------------------------------------------------------------
  Alpha Z     0.09131     0.09131     0.09131
  Ewald      38.59806   -10.72800   -10.72800     0.00000    -0.00000     0.00000
  Hartree    30.46614    12.70728    12.70728    -0.00000    -0.00000    -0.00000
  E(xc)     -10.36236   -10.45137   -10.45137    -0.00000     0.00000     0.00000
  Local     -85.58266   -18.05758   -18.05758    -0.00000     0.00000     0.00000
  n-local    -1.61647    -1.95551    -1.95552    -0.00003    -0.00002    -0.00003
  augment     0.07581    -0.00681    -0.00681     0.00000     0.00000    -0.00000
  Kinetic    28.30123    28.36951    28.36940    -0.00001    -0.00001    -0.00001
  Fock        0.00000     0.00000     0.00000     0.00000     0.00000     0.00000
  -------------------------------------------------------------------------------------
  Total      -0.02894    -0.03123    -0.03123     0.00000    -0.00000     0.00000
  in kB      -0.04212    -0.04546    -0.04546     0.00000    -0.00000     0.00000
  external pressure =       -0.04 kB  Pullay stress =        0.00 kB


 VOLUME and BASIS-vectors are now :
 -----------------------------------------------------------------------------
  energy-cutoff  :      500.00
  volume of cell :     1100.70
      direct lattice vectors                 reciprocal lattice vectors
    10.325000048  0.000000000  0.000000000     0.096852300  0.000000000  0.000000000
     0.000000000 10.325000048  0.000000000     0.000000000  0.096852300  0.000000000
     0.000000000  0.000000000 10.325000048     0.000000000  0.000000000  0.096852300

  length of vectors
    10.325000048 10.325000048 10.325000048     0.096852300  0.096852300  0.096852300


 FORCES acting on ions
    electron-ion (+dipol)            ewald-force                    non-local-force                 convergence-correction
 -----------------------------------------------------------------------------------------------
   -.152E+02 -.101E-07 -.234E-07   0.177E+02 -.333E-19 -.581E-18   -.253E+01 0.473E-22 -.770E-23   0.217E-04 0.400E-15 0.820E-15
   0.152E+02 -.101E-07 0.325E-08   -.177E+02 -.228E-17 0.615E-18   0.253E+01 0.129E-22 -.111E-22   -.217E-04 -.228E-16 -.577E-16
   0.514E-07 -.804E-08 -.804E-08   -.239E-05 -.151E-17 -.740E-18   -.256E-23 0.177E-25 0.195E-25   0.495E-11 0.312E-14 0.313E-14
 -----------------------------------------------------------------------------------------------
   0.505E-05 -.282E-07 -.282E-07   0.177E-14 -.382E-17 -.706E-18   -.256E-23 0.603E-22 -.188E-22   0.571E-11 0.350E-14 0.390E-14


 POSITION                                       TOTAL-FORCE (eV/Angst)
 -----------------------------------------------------------------------------------
      6.50187      5.16250      5.16250        -0.000998      0.000000     -0.000000
      3.82313      5.16250      5.16250         0.000998     -0.000000      0.000000
      5.16250      5.16250      5.16250        -0.000000      0.000000      0.000000
 -----------------------------------------------------------------------------------
    total drift:                                0.000005     -0.000000     -0.000000


--------------------------------------------------------------------------------------------------------



  FREE ENERGIE OF THE ION-ELECTRON SYSTEM (eV)
  ---------------------------------------------------
  free  energy   TOTEN  =        -8.62543902 eV

  energy  without entropy=       -8.62543902  energy(sigma->0) =       -8.62543902

 d Force = 0.9643541E-04[-0.522E-05, 0.198E-03]  d Energy = 0.9468509E-04 0.175E-05
 d Force = 0.9300330E-01[ 0.928E-01, 0.932E-01]  d Ewald  = 0.9300312E-01 0.181E-06


--------------------------------------------------------------------------------------------------------


    POTLOK:  cpu time    0.6415: real time    0.6428


--------------------------------------------------------------------------------------------------------




--------------------------------------------------------------------------------------------------------


  
 reached required accuracy - stopping structural energy minimisation
 writing wavefunctions
     LOOP+:  cpu time  875.1165: real time  884.9428
    4ORBIT:  cpu time    0.0000: real time    0.0000

 total amount of memory used by VASP MPI-rank0  2620370. kBytes
=======================================================================

   base      :      30000. kBytes
   nonl-proj :    1679675. kBytes
   fftplans  :      48668. kBytes
   grid      :      86754. kBytes
   one-center:         24. kBytes
   wavefun   :     775249. kBytes

  
  
 General timing and accounting informations for this job:
 ========================================================
  
                  Total CPU time used (sec):     4594.031
                            User time (sec):     4589.976
                          System time (sec):        4.055
                         Elapsed time (sec):     4632.462
  
                   Maximum memory used (kb):     2779512.
                   Average memory used (kb):          N/A
  
                          Minor page faults:      1380868
                          Major page faults:            7
                 Voluntary context switches:        71780
    4ORBIT:  cpu time    0.0000: real time    0.0000

 total amount of memory used by VASP MPI-rank0  2620370. kBytes
=======================================================================

   base      :      30000. kBytes
   nonl-proj :    1679675. kBytes
   fftplans  :      48668. kBytes
   grid      :      86754. kBytes
   one-center:         24. kBytes
   wavefun   :     775249. kBytes

  
  
 General timing and accounting informations for this job:
 ========================================================
  
                  Total CPU time used (sec):     4790.911
                            User time (sec):     4787.000
                          System time (sec):        3.911
                         Elapsed time (sec):     4831.852
  
                   Maximum memory used (kb):     2607528.
                   Average memory used (kb):          N/A
  
                          Minor page faults:      1467721
                          Major page faults:            6
                 Voluntary context switches:        77271
