<?xml version="1.0" encoding="ISO-8859-1"?>
<modeling>
 <generator>
  <i name="program" type="string">vasp </i>
  <i name="version" type="string">6.2.1  </i>
  <i name="subversion" type="string">16May21 (build Dec 20 2021 17:02:34) complex                          parallel </i>
  <i name="platform" type="string">LinuxGNU </i>
  <i name="date" type="string">2026 03 11 </i>
  <i name="time" type="string">13:07:33 </i>
 </generator>
 <incar>
  <i type="int" name="IBRION">     2</i>
  <i name="EDIFF">      0.00000010</i>
  <i type="int" name="NSW">   100</i>
  <i type="int" name="ISIF">     2</i>
  <i name="ENCUT">    500.00000000</i>
  <i type="int" name="ISMEAR">     0</i>
 </incar>
 <primitive_cell>
  <structure name="primitive_cell" >
   <crystal>
    <varray name="basis" >
     <v>      10.32500005       0.00000000       0.00000000 </v>
     <v>       0.00000000      10.32500005       0.00000000 </v>
     <v>       0.00000000       0.00000000      10.32500005 </v>
    </varray>
    <i name="volume">   1100.70309338 </i>
    <varray name="rec_basis" >
     <v>       0.09685230       0.00000000       0.00000000 </v>
     <v>       0.00000000       0.09685230       0.00000000 </v>
     <v>       0.00000000       0.00000000       0.09685230 </v>
    </varray>
   </crystal>
   <varray name="positions" >
    <v>       0.62881355       0.50000000       0.50000000 </v>
    <v>       0.37118644       0.50000000       0.50000000 </v>
    <v>       0.50000000       0.50000000       0.50000000 </v>
   </varray>
  </structure>
  <varray name="primitive_index" >
   <v type="int" >        1 </v>
   <v type="int" >        2 </v>
   <v type="int" >        3 </v>
  </varray>
 </primitive_cell>
 <kpoints>
  <generation param="Monkhorst-Pack">
   <v type="int" name="divisions">      15       15       15 </v>
   <v name="usershift">      0.00000000       0.00000000       0.00000000 </v>
   <v name="genvec1">      0.06666667       0.00000000       0.00000000 </v>
   <v name="genvec2">      0.00000000       0.06666667       0.00000000 </v>
   <v name="genvec3">      0.00000000       0.00000000       0.06666667 </v>
   <v name="shift">      0.00000000       0.00000000       0.00000000 </v>
  </generation>
  <varray name="kpointlist" >
   <v>       0.00000000       0.00000000       0.00000000 </v>
   <v>       0.06666667       0.00000000       0.00000000 </v>
   <v>       0.00000000       0.06666667       0.00000000 </v>
   <v>       0.13333333       0.00000000       0.00000000 </v>
   <v>       0.00000000       0.13333333       0.00000000 </v>
   <v>       0.20000000       0.00000000       0.00000000 </v>
   <v>       0.00000000       0.20000000       0.00000000 </v>
   <v>       0.26666667       0.00000000       0.00000000 </v>
   <v>       0.00000000       0.26666667       0.00000000 </v>
   <v>       0.33333333       0.00000000       0.00000000 </v>
   <v>       0.00000000       0.33333333       0.00000000 </v>
   <v>       0.40000000       0.00000000       0.00000000 </v>
   <v>       0.00000000       0.40000000       0.00000000 </v>
   <v>       0.46666667       0.00000000       0.00000000 </v>
   <v>       0.00000000       0.46666667       0.00000000 </v>
   <v>       0.06666667       0.06666667       0.00000000 </v>
   <v>       0.00000000       0.06666667       0.06666667 </v>
   <v>       0.13333333       0.06666667       0.00000000 </v>
   <v>       0.00000000       0.13333333       0.06666667 </v>
   <v>       0.06666667       0.00000000       0.13333333 </v>
   <v>       0.20000000       0.06666667       0.00000000 </v>
   <v>       0.00000000       0.20000000       0.06666667 </v>
   <v>       0.06666667       0.00000000       0.20000000 </v>
   <v>       0.26666667       0.06666667       0.00000000 </v>
   <v>       0.00000000       0.26666667       0.06666667 </v>
   <v>       0.06666667       0.00000000       0.26666667 </v>
   <v>       0.33333333       0.06666667       0.00000000 </v>
   <v>       0.00000000       0.33333333       0.06666667 </v>
   <v>       0.06666667       0.00000000       0.33333333 </v>
   <v>       0.40000000       0.06666667       0.00000000 </v>
   <v>       0.00000000       0.40000000       0.06666667 </v>
   <v>       0.06666667       0.00000000       0.40000000 </v>
   <v>       0.46666667       0.06666667       0.00000000 </v>
   <v>       0.00000000       0.46666667       0.06666667 </v>
   <v>       0.06666667       0.00000000       0.46666667 </v>
   <v>       0.13333333       0.13333333       0.00000000 </v>
   <v>       0.00000000       0.13333333       0.13333333 </v>
   <v>       0.20000000       0.13333333       0.00000000 </v>
   <v>       0.00000000       0.20000000       0.13333333 </v>
   <v>       0.13333333       0.00000000       0.20000000 </v>
   <v>       0.26666667       0.13333333       0.00000000 </v>
   <v>       0.00000000       0.26666667       0.13333333 </v>
   <v>       0.13333333       0.00000000       0.26666667 </v>
   <v>       0.33333333       0.13333333       0.00000000 </v>
   <v>       0.00000000       0.33333333       0.13333333 </v>
   <v>       0.13333333       0.00000000       0.33333333 </v>
   <v>       0.40000000       0.13333333       0.00000000 </v>
   <v>       0.00000000       0.40000000       0.13333333 </v>
   <v>       0.13333333       0.00000000       0.40000000 </v>
   <v>       0.46666667       0.13333333       0.00000000 </v>
   <v>       0.00000000       0.46666667       0.13333333 </v>
   <v>       0.13333333       0.00000000       0.46666667 </v>
   <v>       0.20000000       0.20000000       0.00000000 </v>
   <v>       0.00000000       0.20000000       0.20000000 </v>
   <v>       0.26666667       0.20000000       0.00000000 </v>
   <v>       0.00000000       0.26666667       0.20000000 </v>
   <v>       0.20000000       0.00000000       0.26666667 </v>
   <v>       0.33333333       0.20000000       0.00000000 </v>
   <v>       0.00000000       0.33333333       0.20000000 </v>
   <v>       0.20000000       0.00000000       0.33333333 </v>
   <v>       0.40000000       0.20000000       0.00000000 </v>
   <v>       0.00000000       0.40000000       0.20000000 </v>
   <v>       0.20000000       0.00000000       0.40000000 </v>
   <v>       0.46666667       0.20000000       0.00000000 </v>
   <v>       0.00000000       0.46666667       0.20000000 </v>
   <v>       0.20000000       0.00000000       0.46666667 </v>
   <v>       0.26666667       0.26666667       0.00000000 </v>
   <v>       0.00000000       0.26666667       0.26666667 </v>
   <v>       0.33333333       0.26666667       0.00000000 </v>
   <v>       0.00000000       0.33333333       0.26666667 </v>
   <v>       0.26666667       0.00000000       0.33333333 </v>
   <v>       0.40000000       0.26666667       0.00000000 </v>
   <v>       0.00000000       0.40000000       0.26666667 </v>
   <v>       0.26666667       0.00000000       0.40000000 </v>
   <v>       0.46666667       0.26666667       0.00000000 </v>
   <v>       0.00000000       0.46666667       0.26666667 </v>
   <v>       0.26666667       0.00000000       0.46666667 </v>
   <v>       0.33333333       0.33333333       0.00000000 </v>
   <v>       0.00000000       0.33333333       0.33333333 </v>
   <v>       0.40000000       0.33333333       0.00000000 </v>
   <v>       0.00000000       0.40000000       0.33333333 </v>
   <v>       0.33333333       0.00000000       0.40000000 </v>
   <v>       0.46666667       0.33333333       0.00000000 </v>
   <v>       0.00000000       0.46666667       0.33333333 </v>
   <v>       0.33333333       0.00000000       0.46666667 </v>
   <v>       0.40000000       0.40000000       0.00000000 </v>
   <v>       0.00000000       0.40000000       0.40000000 </v>
   <v>       0.46666667       0.40000000       0.00000000 </v>
   <v>       0.00000000       0.46666667       0.40000000 </v>
   <v>       0.40000000       0.00000000       0.46666667 </v>
   <v>       0.46666667       0.46666667       0.00000000 </v>
   <v>       0.00000000       0.46666667       0.46666667 </v>
   <v>       0.06666667       0.06666667       0.06666667 </v>
   <v>       0.13333333       0.06666667       0.06666667 </v>
   <v>       0.06666667       0.13333333       0.06666667 </v>
   <v>       0.20000000       0.06666667       0.06666667 </v>
   <v>       0.06666667       0.20000000       0.06666667 </v>
   <v>       0.26666667       0.06666667       0.06666667 </v>
   <v>       0.06666667       0.26666667       0.06666667 </v>
   <v>       0.33333333       0.06666667       0.06666667 </v>
   <v>       0.06666667       0.33333333       0.06666667 </v>
   <v>       0.40000000       0.06666667       0.06666667 </v>
   <v>       0.06666667       0.40000000       0.06666667 </v>
   <v>       0.46666667       0.06666667       0.06666667 </v>
   <v>       0.06666667       0.46666667       0.06666667 </v>
   <v>       0.13333333       0.13333333       0.06666667 </v>
   <v>       0.06666667       0.13333333       0.13333333 </v>
   <v>       0.20000000       0.13333333       0.06666667 </v>
   <v>       0.06666667       0.20000000       0.13333333 </v>
   <v>       0.13333333       0.06666667       0.20000000 </v>
   <v>       0.26666667       0.13333333       0.06666667 </v>
   <v>       0.06666667       0.26666667       0.13333333 </v>
   <v>       0.13333333       0.06666667       0.26666667 </v>
   <v>       0.33333333       0.13333333       0.06666667 </v>
   <v>       0.06666667       0.33333333       0.13333333 </v>
   <v>       0.13333333       0.06666667       0.33333333 </v>
   <v>       0.40000000       0.13333333       0.06666667 </v>
   <v>       0.06666667       0.40000000       0.13333333 </v>
   <v>       0.13333333       0.06666667       0.40000000 </v>
   <v>       0.46666667       0.13333333       0.06666667 </v>
   <v>       0.06666667       0.46666667       0.13333333 </v>
   <v>       0.13333333       0.06666667       0.46666667 </v>
   <v>       0.20000000       0.20000000       0.06666667 </v>
   <v>       0.06666667       0.20000000       0.20000000 </v>
   <v>       0.26666667       0.20000000       0.06666667 </v>
   <v>       0.06666667       0.26666667       0.20000000 </v>
   <v>       0.20000000       0.06666667       0.26666667 </v>
   <v>       0.33333333       0.20000000       0.06666667 </v>
   <v>       0.06666667       0.33333333       0.20000000 </v>
   <v>       0.20000000       0.06666667       0.33333333 </v>
   <v>       0.40000000       0.20000000       0.06666667 </v>
   <v>       0.06666667       0.40000000       0.20000000 </v>
   <v>       0.20000000       0.06666667       0.40000000 </v>
   <v>       0.46666667       0.20000000       0.06666667 </v>
   <v>       0.06666667       0.46666667       0.20000000 </v>
   <v>       0.20000000       0.06666667       0.46666667 </v>
   <v>       0.26666667       0.26666667       0.06666667 </v>
   <v>       0.06666667       0.26666667       0.26666667 </v>
   <v>       0.33333333       0.26666667       0.06666667 </v>
   <v>       0.06666667       0.33333333       0.26666667 </v>
   <v>       0.26666667       0.06666667       0.33333333 </v>
   <v>       0.40000000       0.26666667       0.06666667 </v>
   <v>       0.06666667       0.40000000       0.26666667 </v>
   <v>       0.26666667       0.06666667       0.40000000 </v>
   <v>       0.46666667       0.26666667       0.06666667 </v>
   <v>       0.06666667       0.46666667       0.26666667 </v>
   <v>       0.26666667       0.06666667       0.46666667 </v>
   <v>       0.33333333       0.33333333       0.06666667 </v>
   <v>       0.06666667       0.33333333       0.33333333 </v>
   <v>       0.40000000       0.33333333       0.06666667 </v>
   <v>       0.06666667       0.40000000       0.33333333 </v>
   <v>       0.33333333       0.06666667       0.40000000 </v>
   <v>       0.46666667       0.33333333       0.06666667 </v>
   <v>       0.06666667       0.46666667       0.33333333 </v>
   <v>       0.33333333       0.06666667       0.46666667 </v>
   <v>       0.40000000       0.40000000       0.06666667 </v>
   <v>       0.06666667       0.40000000       0.40000000 </v>
   <v>       0.46666667       0.40000000       0.06666667 </v>
   <v>       0.06666667       0.46666667       0.40000000 </v>
   <v>       0.40000000       0.06666667       0.46666667 </v>
   <v>       0.46666667       0.46666667       0.06666667 </v>
   <v>       0.06666667       0.46666667       0.46666667 </v>
   <v>       0.13333333       0.13333333       0.13333333 </v>
   <v>       0.20000000       0.13333333       0.13333333 </v>
   <v>       0.13333333       0.20000000       0.13333333 </v>
   <v>       0.26666667       0.13333333       0.13333333 </v>
   <v>       0.13333333       0.26666667       0.13333333 </v>
   <v>       0.33333333       0.13333333       0.13333333 </v>
   <v>       0.13333333       0.33333333       0.13333333 </v>
   <v>       0.40000000       0.13333333       0.13333333 </v>
   <v>       0.13333333       0.40000000       0.13333333 </v>
   <v>       0.46666667       0.13333333       0.13333333 </v>
   <v>       0.13333333       0.46666667       0.13333333 </v>
   <v>       0.20000000       0.20000000       0.13333333 </v>
   <v>       0.13333333       0.20000000       0.20000000 </v>
   <v>       0.26666667       0.20000000       0.13333333 </v>
   <v>       0.13333333       0.26666667       0.20000000 </v>
   <v>       0.20000000       0.13333333       0.26666667 </v>
   <v>       0.33333333       0.20000000       0.13333333 </v>
   <v>       0.13333333       0.33333333       0.20000000 </v>
   <v>       0.20000000       0.13333333       0.33333333 </v>
   <v>       0.40000000       0.20000000       0.13333333 </v>
   <v>       0.13333333       0.40000000       0.20000000 </v>
   <v>       0.20000000       0.13333333       0.40000000 </v>
   <v>       0.46666667       0.20000000       0.13333333 </v>
   <v>       0.13333333       0.46666667       0.20000000 </v>
   <v>       0.20000000       0.13333333       0.46666667 </v>
   <v>       0.26666667       0.26666667       0.13333333 </v>
   <v>       0.13333333       0.26666667       0.26666667 </v>
   <v>       0.33333333       0.26666667       0.13333333 </v>
   <v>       0.13333333       0.33333333       0.26666667 </v>
   <v>       0.26666667       0.13333333       0.33333333 </v>
   <v>       0.40000000       0.26666667       0.13333333 </v>
   <v>       0.13333333       0.40000000       0.26666667 </v>
   <v>       0.26666667       0.13333333       0.40000000 </v>
   <v>       0.46666667       0.26666667       0.13333333 </v>
   <v>       0.13333333       0.46666667       0.26666667 </v>
   <v>       0.26666667       0.13333333       0.46666667 </v>
   <v>       0.33333333       0.33333333       0.13333333 </v>
   <v>       0.13333333       0.33333333       0.33333333 </v>
   <v>       0.40000000       0.33333333       0.13333333 </v>
   <v>       0.13333333       0.40000000       0.33333333 </v>
   <v>       0.33333333       0.13333333       0.40000000 </v>
   <v>       0.46666667       0.33333333       0.13333333 </v>
   <v>       0.13333333       0.46666667       0.33333333 </v>
   <v>       0.33333333       0.13333333       0.46666667 </v>
   <v>       0.40000000       0.40000000       0.13333333 </v>
   <v>       0.13333333       0.40000000       0.40000000 </v>
   <v>       0.46666667       0.40000000       0.13333333 </v>
   <v>       0.13333333       0.46666667       0.40000000 </v>
   <v>       0.40000000       0.13333333       0.46666667 </v>
   <v>       0.46666667       0.46666667       0.13333333 </v>
   <v>       0.13333333       0.46666667       0.46666667 </v>
   <v>       0.20000000       0.20000000       0.20000000 </v>
   <v>       0.26666667       0.20000000       0.20000000 </v>
   <v>       0.20000000       0.26666667       0.20000000 </v>
   <v>       0.33333333       0.20000000       0.20000000 </v>
   <v>       0.20000000       0.33333333       0.20000000 </v>
   <v>       0.40000000       0.20000000       0.20000000 </v>
   <v>       0.20000000       0.40000000       0.20000000 </v>
   <v>       0.46666667       0.20000000       0.20000000 </v>
   <v>       0.20000000       0.46666667       0.20000000 </v>
   <v>       0.26666667       0.26666667       0.20000000 </v>
   <v>       0.20000000       0.26666667       0.26666667 </v>
   <v>       0.33333333       0.26666667       0.20000000 </v>
   <v>       0.20000000       0.33333333       0.26666667 </v>
   <v>       0.26666667       0.20000000       0.33333333 </v>
   <v>       0.40000000       0.26666667       0.20000000 </v>
   <v>       0.20000000       0.40000000       0.26666667 </v>
   <v>       0.26666667       0.20000000       0.40000000 </v>
   <v>       0.46666667       0.26666667       0.20000000 </v>
   <v>       0.20000000       0.46666667       0.26666667 </v>
   <v>       0.26666667       0.20000000       0.46666667 </v>
   <v>       0.33333333       0.33333333       0.20000000 </v>
   <v>       0.20000000       0.33333333       0.33333333 </v>
   <v>       0.40000000       0.33333333       0.20000000 </v>
   <v>       0.20000000       0.40000000       0.33333333 </v>
   <v>       0.33333333       0.20000000       0.40000000 </v>
   <v>       0.46666667       0.33333333       0.20000000 </v>
   <v>       0.20000000       0.46666667       0.33333333 </v>
   <v>       0.33333333       0.20000000       0.46666667 </v>
   <v>       0.40000000       0.40000000       0.20000000 </v>
   <v>       0.20000000       0.40000000       0.40000000 </v>
   <v>       0.46666667       0.40000000       0.20000000 </v>
   <v>       0.20000000       0.46666667       0.40000000 </v>
   <v>       0.40000000       0.20000000       0.46666667 </v>
   <v>       0.46666667       0.46666667       0.20000000 </v>
   <v>       0.20000000       0.46666667       0.46666667 </v>
   <v>       0.26666667       0.26666667       0.26666667 </v>
   <v>       0.33333333       0.26666667       0.26666667 </v>
   <v>       0.26666667       0.33333333       0.26666667 </v>
   <v>       0.40000000       0.26666667       0.26666667 </v>
   <v>       0.26666667       0.40000000       0.26666667 </v>
   <v>       0.46666667       0.26666667       0.26666667 </v>
   <v>       0.26666667       0.46666667       0.26666667 </v>
   <v>       0.33333333       0.33333333       0.26666667 </v>
   <v>       0.26666667       0.33333333       0.33333333 </v>
   <v>       0.40000000       0.33333333       0.26666667 </v>
   <v>       0.26666667       0.40000000       0.33333333 </v>
   <v>       0.33333333       0.26666667       0.40000000 </v>
   <v>       0.46666667       0.33333333       0.26666667 </v>
   <v>       0.26666667       0.46666667       0.33333333 </v>
   <v>       0.33333333       0.26666667       0.46666667 </v>
   <v>       0.40000000       0.40000000       0.26666667 </v>
   <v>       0.26666667       0.40000000       0.40000000 </v>
   <v>       0.46666667       0.40000000       0.26666667 </v>
   <v>       0.26666667       0.46666667       0.40000000 </v>
   <v>       0.40000000       0.26666667       0.46666667 </v>
   <v>       0.46666667       0.46666667       0.26666667 </v>
   <v>       0.26666667       0.46666667       0.46666667 </v>
   <v>       0.33333333       0.33333333       0.33333333 </v>
   <v>       0.40000000       0.33333333       0.33333333 </v>
   <v>       0.33333333       0.40000000       0.33333333 </v>
   <v>       0.46666667       0.33333333       0.33333333 </v>
   <v>       0.33333333       0.46666667       0.33333333 </v>
   <v>       0.40000000       0.40000000       0.33333333 </v>
   <v>       0.33333333       0.40000000       0.40000000 </v>
   <v>       0.46666667       0.40000000       0.33333333 </v>
   <v>       0.33333333       0.46666667       0.40000000 </v>
   <v>       0.40000000       0.33333333       0.46666667 </v>
   <v>       0.46666667       0.46666667       0.33333333 </v>
   <v>       0.33333333       0.46666667       0.46666667 </v>
   <v>       0.40000000       0.40000000       0.40000000 </v>
   <v>       0.46666667       0.40000000       0.40000000 </v>
   <v>       0.40000000       0.46666667       0.40000000 </v>
   <v>       0.46666667       0.46666667       0.40000000 </v>
   <v>       0.40000000       0.46666667       0.46666667 </v>
   <v>       0.46666667       0.46666667       0.46666667 </v>
  </varray>
  <varray name="weights" >
   <v>       0.00029630 </v>
   <v>       0.00059259 </v>
   <v>       0.00118519 </v>
   <v>       0.00059259 </v>
   <v>       0.00118519 </v>
   <v>       0.00059259 </v>
   <v>       0.00118519 </v>
   <v>       0.00059259 </v>
   <v>       0.00118519 </v>
   <v>       0.00059259 </v>
   <v>       0.00118519 </v>
   <v>       0.00059259 </v>
   <v>       0.00118519 </v>
   <v>       0.00059259 </v>
   <v>       0.00118519 </v>
   <v>       0.00237037 </v>
   <v>       0.00118519 </v>
   <v>       0.00237037 </v>
   <v>       0.00237037 </v>
   <v>       0.00237037 </v>
   <v>       0.00237037 </v>
   <v>       0.00237037 </v>
   <v>       0.00237037 </v>
   <v>       0.00237037 </v>
   <v>       0.00237037 </v>
   <v>       0.00237037 </v>
   <v>       0.00237037 </v>
   <v>       0.00237037 </v>
   <v>       0.00237037 </v>
   <v>       0.00237037 </v>
   <v>       0.00237037 </v>
   <v>       0.00237037 </v>
   <v>       0.00237037 </v>
   <v>       0.00237037 </v>
   <v>       0.00237037 </v>
   <v>       0.00237037 </v>
   <v>       0.00118519 </v>
   <v>       0.00237037 </v>
   <v>       0.00237037 </v>
   <v>       0.00237037 </v>
   <v>       0.00237037 </v>
   <v>       0.00237037 </v>
   <v>       0.00237037 </v>
   <v>       0.00237037 </v>
   <v>       0.00237037 </v>
   <v>       0.00237037 </v>
   <v>       0.00237037 </v>
   <v>       0.00237037 </v>
   <v>       0.00237037 </v>
   <v>       0.00237037 </v>
   <v>       0.00237037 </v>
   <v>       0.00237037 </v>
   <v>       0.00237037 </v>
   <v>       0.00118519 </v>
   <v>       0.00237037 </v>
   <v>       0.00237037 </v>
   <v>       0.00237037 </v>
   <v>       0.00237037 </v>
   <v>       0.00237037 </v>
   <v>       0.00237037 </v>
   <v>       0.00237037 </v>
   <v>       0.00237037 </v>
   <v>       0.00237037 </v>
   <v>       0.00237037 </v>
   <v>       0.00237037 </v>
   <v>       0.00237037 </v>
   <v>       0.00237037 </v>
   <v>       0.00118519 </v>
   <v>       0.00237037 </v>
   <v>       0.00237037 </v>
   <v>       0.00237037 </v>
   <v>       0.00237037 </v>
   <v>       0.00237037 </v>
   <v>       0.00237037 </v>
   <v>       0.00237037 </v>
   <v>       0.00237037 </v>
   <v>       0.00237037 </v>
   <v>       0.00237037 </v>
   <v>       0.00118519 </v>
   <v>       0.00237037 </v>
   <v>       0.00237037 </v>
   <v>       0.00237037 </v>
   <v>       0.00237037 </v>
   <v>       0.00237037 </v>
   <v>       0.00237037 </v>
   <v>       0.00237037 </v>
   <v>       0.00118519 </v>
   <v>       0.00237037 </v>
   <v>       0.00237037 </v>
   <v>       0.00237037 </v>
   <v>       0.00237037 </v>
   <v>       0.00118519 </v>
   <v>       0.00237037 </v>
   <v>       0.00237037 </v>
   <v>       0.00474074 </v>
   <v>       0.00237037 </v>
   <v>       0.00474074 </v>
   <v>       0.00237037 </v>
   <v>       0.00474074 </v>
   <v>       0.00237037 </v>
   <v>       0.00474074 </v>
   <v>       0.00237037 </v>
   <v>       0.00474074 </v>
   <v>       0.00237037 </v>
   <v>       0.00474074 </v>
   <v>       0.00474074 </v>
   <v>       0.00237037 </v>
   <v>       0.00474074 </v>
   <v>       0.00474074 </v>
   <v>       0.00474074 </v>
   <v>       0.00474074 </v>
   <v>       0.00474074 </v>
   <v>       0.00474074 </v>
   <v>       0.00474074 </v>
   <v>       0.00474074 </v>
   <v>       0.00474074 </v>
   <v>       0.00474074 </v>
   <v>       0.00474074 </v>
   <v>       0.00474074 </v>
   <v>       0.00474074 </v>
   <v>       0.00474074 </v>
   <v>       0.00474074 </v>
   <v>       0.00474074 </v>
   <v>       0.00237037 </v>
   <v>       0.00474074 </v>
   <v>       0.00474074 </v>
   <v>       0.00474074 </v>
   <v>       0.00474074 </v>
   <v>       0.00474074 </v>
   <v>       0.00474074 </v>
   <v>       0.00474074 </v>
   <v>       0.00474074 </v>
   <v>       0.00474074 </v>
   <v>       0.00474074 </v>
   <v>       0.00474074 </v>
   <v>       0.00474074 </v>
   <v>       0.00474074 </v>
   <v>       0.00237037 </v>
   <v>       0.00474074 </v>
   <v>       0.00474074 </v>
   <v>       0.00474074 </v>
   <v>       0.00474074 </v>
   <v>       0.00474074 </v>
   <v>       0.00474074 </v>
   <v>       0.00474074 </v>
   <v>       0.00474074 </v>
   <v>       0.00474074 </v>
   <v>       0.00474074 </v>
   <v>       0.00237037 </v>
   <v>       0.00474074 </v>
   <v>       0.00474074 </v>
   <v>       0.00474074 </v>
   <v>       0.00474074 </v>
   <v>       0.00474074 </v>
   <v>       0.00474074 </v>
   <v>       0.00474074 </v>
   <v>       0.00237037 </v>
   <v>       0.00474074 </v>
   <v>       0.00474074 </v>
   <v>       0.00474074 </v>
   <v>       0.00474074 </v>
   <v>       0.00237037 </v>
   <v>       0.00237037 </v>
   <v>       0.00237037 </v>
   <v>       0.00474074 </v>
   <v>       0.00237037 </v>
   <v>       0.00474074 </v>
   <v>       0.00237037 </v>
   <v>       0.00474074 </v>
   <v>       0.00237037 </v>
   <v>       0.00474074 </v>
   <v>       0.00237037 </v>
   <v>       0.00474074 </v>
   <v>       0.00474074 </v>
   <v>       0.00237037 </v>
   <v>       0.00474074 </v>
   <v>       0.00474074 </v>
   <v>       0.00474074 </v>
   <v>       0.00474074 </v>
   <v>       0.00474074 </v>
   <v>       0.00474074 </v>
   <v>       0.00474074 </v>
   <v>       0.00474074 </v>
   <v>       0.00474074 </v>
   <v>       0.00474074 </v>
   <v>       0.00474074 </v>
   <v>       0.00474074 </v>
   <v>       0.00474074 </v>
   <v>       0.00237037 </v>
   <v>       0.00474074 </v>
   <v>       0.00474074 </v>
   <v>       0.00474074 </v>
   <v>       0.00474074 </v>
   <v>       0.00474074 </v>
   <v>       0.00474074 </v>
   <v>       0.00474074 </v>
   <v>       0.00474074 </v>
   <v>       0.00474074 </v>
   <v>       0.00474074 </v>
   <v>       0.00237037 </v>
   <v>       0.00474074 </v>
   <v>       0.00474074 </v>
   <v>       0.00474074 </v>
   <v>       0.00474074 </v>
   <v>       0.00474074 </v>
   <v>       0.00474074 </v>
   <v>       0.00474074 </v>
   <v>       0.00237037 </v>
   <v>       0.00474074 </v>
   <v>       0.00474074 </v>
   <v>       0.00474074 </v>
   <v>       0.00474074 </v>
   <v>       0.00237037 </v>
   <v>       0.00237037 </v>
   <v>       0.00237037 </v>
   <v>       0.00474074 </v>
   <v>       0.00237037 </v>
   <v>       0.00474074 </v>
   <v>       0.00237037 </v>
   <v>       0.00474074 </v>
   <v>       0.00237037 </v>
   <v>       0.00474074 </v>
   <v>       0.00474074 </v>
   <v>       0.00237037 </v>
   <v>       0.00474074 </v>
   <v>       0.00474074 </v>
   <v>       0.00474074 </v>
   <v>       0.00474074 </v>
   <v>       0.00474074 </v>
   <v>       0.00474074 </v>
   <v>       0.00474074 </v>
   <v>       0.00474074 </v>
   <v>       0.00474074 </v>
   <v>       0.00474074 </v>
   <v>       0.00237037 </v>
   <v>       0.00474074 </v>
   <v>       0.00474074 </v>
   <v>       0.00474074 </v>
   <v>       0.00474074 </v>
   <v>       0.00474074 </v>
   <v>       0.00474074 </v>
   <v>       0.00474074 </v>
   <v>       0.00237037 </v>
   <v>       0.00474074 </v>
   <v>       0.00474074 </v>
   <v>       0.00474074 </v>
   <v>       0.00474074 </v>
   <v>       0.00237037 </v>
   <v>       0.00237037 </v>
   <v>       0.00237037 </v>
   <v>       0.00474074 </v>
   <v>       0.00237037 </v>
   <v>       0.00474074 </v>
   <v>       0.00237037 </v>
   <v>       0.00474074 </v>
   <v>       0.00474074 </v>
   <v>       0.00237037 </v>
   <v>       0.00474074 </v>
   <v>       0.00474074 </v>
   <v>       0.00474074 </v>
   <v>       0.00474074 </v>
   <v>       0.00474074 </v>
   <v>       0.00474074 </v>
   <v>       0.00474074 </v>
   <v>       0.00237037 </v>
   <v>       0.00474074 </v>
   <v>       0.00474074 </v>
   <v>       0.00474074 </v>
   <v>       0.00474074 </v>
   <v>       0.00237037 </v>
   <v>       0.00237037 </v>
   <v>       0.00237037 </v>
   <v>       0.00474074 </v>
   <v>       0.00237037 </v>
   <v>       0.00474074 </v>
   <v>       0.00474074 </v>
   <v>       0.00237037 </v>
   <v>       0.00474074 </v>
   <v>       0.00474074 </v>
   <v>       0.00474074 </v>
   <v>       0.00474074 </v>
   <v>       0.00237037 </v>
   <v>       0.00237037 </v>
   <v>       0.00237037 </v>
   <v>       0.00474074 </v>
   <v>       0.00474074 </v>
   <v>       0.00237037 </v>
   <v>       0.00237037 </v>
  </varray>
 </kpoints>
 <parameters>
  <separator name="general" >
   <i type="string" name="SYSTEM">unknown system</i>
   <i type="logical" name="LCOMPAT"> F  </i>
  </separator>
  <separator name="electronic" >
   <i type="string" name="PREC">normal</i>
   <i name="ENMAX">    500.00000000</i>
   <i name="ENAUG">    527.98500000</i>
   <i name="EDIFF">      0.00000010</i>
   <i type="int" name="IALGO">    38</i>
   <i type="int" name="IWAVPR">    11</i>
   <i type="int" name="NBANDS">     6</i>
   <i type="int" name="NBANDSLOW">    -1</i>
   <i type="int" name="NBANDSHIGH">    -1</i>
   <i name="NELECT">      4.00000000</i>
   <i type="int" name="TURBO">     0</i>
   <i type="int" name="IRESTART">     0</i>
   <i type="int" name="NREBOOT">     0</i>
   <i type="int" name="NMIN">     0</i>
   <i name="EREF">      0.00000000</i>
   <separator name="electronic smearing" >
    <i type="int" name="ISMEAR">     0</i>
    <i name="SIGMA">      0.20000000</i>
    <i name="KSPACING">      0.50000000</i>
    <i type="logical" name="KGAMMA"> T  </i>
    <i type="logical" name="KBLOWUP"> T  </i>
   </separator>
   <separator name="electronic projectors" >
    <i type="logical" name="LREAL"> F  </i>
    <v name="ROPT">      0.00000000      0.00000000</v>
    <i type="int" name="LMAXPAW">  -100</i>
    <i type="int" name="LMAXMIX">     2</i>
    <i type="logical" name="NLSPLINE"> F  </i>
   </separator>
   <separator name="electronic startup" >
    <i type="int" name="ISTART">     0</i>
    <i type="int" name="ICHARG">     2</i>
    <i type="int" name="INIWAV">     1</i>
   </separator>
   <separator name="electronic spin" >
    <i type="int" name="ISPIN">     1</i>
    <i type="logical" name="LNONCOLLINEAR"> F  </i>
    <v name="MAGMOM">      1.00000000      1.00000000      1.00000000</v>
    <i name="NUPDOWN">     -1.00000000</i>
    <i type="logical" name="LSORBIT"> F  </i>
    <v name="SAXIS">      0.00000000      0.00000000      1.00000000</v>
    <i type="logical" name="LSPIRAL"> F  </i>
    <v name="QSPIRAL">      0.00000000      0.00000000      0.00000000</v>
    <i type="logical" name="LZEROZ"> F  </i>
   </separator>
   <separator name="electronic exchange-correlation" >
    <i type="logical" name="LASPH"> F  </i>
    <i type="logical" name="LMETAGGA"> F  </i>
   </separator>
   <separator name="electronic convergence" >
    <i type="int" name="NELM">    60</i>
    <i type="int" name="NELMDL">     0</i>
    <i type="int" name="NELMIN">     2</i>
    <i name="ENINI">    500.00000000</i>
    <separator name="electronic convergence detail" >
     <i type="logical" name="LDIAG"> T  </i>
     <i type="logical" name="LSUBROT"> F  </i>
     <i name="WEIMIN">      0.00100000</i>
     <i name="EBREAK">      0.00000000</i>
     <i name="DEPER">      0.30000000</i>
     <i type="int" name="NRMM">     4</i>
     <i name="TIME">      0.40000000</i>
    </separator>
   </separator>
   <separator name="electronic mixer" >
    <i name="AMIX">      0.40000000</i>
    <i name="BMIX">      1.00000000</i>
    <i name="AMIN">      0.10000000</i>
    <i name="AMIX_MAG">      1.60000000</i>
    <i name="BMIX_MAG">      1.00000000</i>
    <separator name="electronic mixer details" >
     <i type="int" name="IMIX">     4</i>
     <i type="logical" name="MIXFIRST"> F  </i>
     <i type="int" name="MAXMIX">   -45</i>
     <i name="WC">    100.00000000</i>
     <i type="int" name="INIMIX">     1</i>
     <i type="int" name="MIXPRE">     1</i>
     <i type="int" name="MREMOVE">     5</i>
    </separator>
   </separator>
   <separator name="electronic dipolcorrection" >
    <i type="logical" name="LDIPOL"> F  </i>
    <i type="logical" name="LMONO"> F  </i>
    <i type="int" name="IDIPOL">     0</i>
    <i name="EPSILON">      1.00000000</i>
    <v name="DIPOL">   -100.00000000   -100.00000000   -100.00000000</v>
    <i name="EFIELD">      0.00000000</i>
   </separator>
  </separator>
  <separator name="grids" >
   <i type="int" name="NGX">    56</i>
   <i type="int" name="NGY">    56</i>
   <i type="int" name="NGZ">    56</i>
   <i type="int" name="NGXF">   112</i>
   <i type="int" name="NGYF">   112</i>
   <i type="int" name="NGZF">   112</i>
   <i type="logical" name="ADDGRID"> F  </i>
  </separator>
  <separator name="ionic" >
   <i type="int" name="NSW">   100</i>
   <i type="int" name="IBRION">     2</i>
   <i type="int" name="MDALGO">     0</i>
   <i type="int" name="ISIF">     2</i>
   <i name="PSTRESS">      0.00000000</i>
   <i name="EDIFFG">      0.00000100</i>
   <i type="int" name="NFREE">     1</i>
   <i name="POTIM">      0.50000000</i>
   <i name="SMASS">     -3.00000000</i>
   <i name="SCALEE">      1.00000000</i>
  </separator>
  <separator name="ionic md" >
   <i name="TEBEG">      0.00010000</i>
   <i name="TEEND">      0.00010000</i>
   <i type="int" name="NBLOCK">     1</i>
   <i type="int" name="KBLOCK">   100</i>
   <i type="int" name="NPACO">   256</i>
   <i name="APACO">     16.00000000</i>
  </separator>
  <separator name="symmetry" >
   <i type="int" name="ISYM">     2</i>
   <i name="SYMPREC">      0.00001000</i>
  </separator>
  <separator name="dos" >
   <i type="int" name="LORBIT">     0</i>
   <v name="RWIGS">     -1.00000000     -1.00000000</v>
   <i type="int" name="NEDOS">   301</i>
   <i name="EMIN">     10.00000000</i>
   <i name="EMAX">    -10.00000000</i>
   <i name="EFERMI">      0.00000000</i>
  </separator>
  <separator name="writing" >
   <i type="int" name="NWRITE">     2</i>
   <i type="logical" name="LWAVE"> T  </i>
   <i type="logical" name="LDOWNSAMPLE"> F  </i>
   <i type="logical" name="LCHARG"> T  </i>
   <i type="logical" name="LPARD"> F  </i>
   <i type="logical" name="LVTOT"> F  </i>
   <i type="logical" name="LVHAR"> F  </i>
   <i type="logical" name="LELF"> F  </i>
   <i type="logical" name="LOPTICS"> F  </i>
   <v name="STM">      0.00000000      0.00000000      0.00000000      0.00000000      0.00000000      0.00000000      0.00000000</v>
  </separator>
  <separator name="performance" >
   <i type="int" name="NPAR">     1</i>
   <i type="int" name="NSIM">     4</i>
   <i type="int" name="NBLK">    -1</i>
   <i type="logical" name="LPLANE"> T  </i>
   <i type="logical" name="LSCALAPACK"> T  </i>
   <i type="logical" name="LSCAAWARE"> F  </i>
   <i type="logical" name="LSCALU"> F  </i>
   <i type="logical" name="LASYNC"> F  </i>
   <i type="logical" name="LORBITALREAL"> F  </i>
  </separator>
  <separator name="miscellaneous" >
   <i type="int" name="IDIOT">     3</i>
   <i type="int" name="PHON_NSTRUCT">    -1</i>
   <i type="logical" name="LMUSIC"> F  </i>
   <v name="POMASS">      1.00000000      9.01300000</v>
   <v name="DARWINR">      0.00000000      0.00000000</v>
   <v name="DARWINV">      1.00000000      1.00000000</v>
   <i type="logical" name="LCORR"> T  </i>
  </separator>
  <i type="logical" name="GGA_COMPAT"> T  </i>
  <i type="logical" name="LBERRY"> F  </i>
  <i type="int" name="ICORELEVEL">     0</i>
  <i type="logical" name="LDAU"> F  </i>
  <i type="int" name="I_CONSTRAINED_M">     0</i>
  <separator name="electronic exchange-correlation" >
   <i type="string" name="GGA">--</i>
   <i type="int" name="VOSKOWN">     0</i>
   <i type="logical" name="LHFCALC"> F  </i>
   <i type="string" name="PRECFOCK"></i>
   <i type="logical" name="LSYMGRAD"> F  </i>
   <i type="logical" name="LHFONE"> F  </i>
   <i type="logical" name="LRHFCALC"> F  </i>
   <i type="logical" name="LTHOMAS"> F  </i>
   <i type="logical" name="LMODELHF"> F  </i>
   <i type="logical" name="LFOCKACE"> F  </i>
   <i name="ENCUT4O">     -1.00000000</i>
   <i type="int" name="EXXOEP">     0</i>
   <i type="int" name="FOURORBIT">     0</i>
   <i name="AEXX">      0.00000000</i>
   <i name="HFALPHA">      0.00000000</i>
   <i name="MCALPHA">      0.00000000</i>
   <i name="ALDAX">      1.00000000</i>
   <i name="AGGAX">      1.00000000</i>
   <i name="ALDAC">      1.00000000</i>
   <i name="AGGAC">      1.00000000</i>
   <i type="int" name="NKREDX">     1</i>
   <i type="int" name="NKREDY">     1</i>
   <i type="int" name="NKREDZ">     1</i>
   <i type="logical" name="SHIFTRED"> F  </i>
   <i type="logical" name="ODDONLY"> F  </i>
   <i type="logical" name="EVENONLY"> F  </i>
   <i type="int" name="LMAXFOCK">     0</i>
   <i type="int" name="NMAXFOCKAE">     0</i>
   <i type="logical" name="LFOCKAEDFT"> F  </i>
   <i name="HFSCREEN">      0.00000000</i>
   <i name="HFSCREENC">      0.00000000</i>
   <i type="int" name="NBANDSGWLOW">     0</i>
  </separator>
  <separator name="vdW DFT" >
   <i type="logical" name="LUSE_VDW"> F  </i>
   <i name="Zab_VDW">     -0.84910000</i>
   <i name="PARAM1">      0.12340000</i>
   <i name="PARAM2">      1.00000000</i>
   <i name="PARAM3">      0.00000000</i>
  </separator>
  <separator name="model GW" >
   <i type="int" name="MODEL_GW">     0</i>
   <i name="MODEL_EPS0">    220.14061868</i>
   <i name="MODEL_ALPHA">      1.00000000</i>
  </separator>
  <separator name="linear response parameters" >
   <i type="logical" name="LEPSILON"> F  </i>
   <i type="logical" name="LRPA"> F  </i>
   <i type="logical" name="LNABLA"> F  </i>
   <i type="logical" name="LVEL"> F  </i>
   <i type="int" name="KINTER">     0</i>
   <i name="CSHIFT">      0.10000000</i>
   <i name="OMEGAMAX">     -1.00000000</i>
   <i name="DEG_THRESHOLD">      0.00200000</i>
   <i name="RTIME">     -0.10000000</i>
   <i name="WPLASMAI">      0.00000000</i>
   <v name="DFIELD">      0.00000000      0.00000000      0.00000000</v>
   <v name="WPLASMA">      0.00000000      0.00000000      0.00000000      0.00000000      0.00000000      0.00000000      0.00000000      0.00000000      0.00000000</v>
  </separator>
  <separator name="orbital magnetization" >
   <i type="logical" name="NUCIND"> F  </i>
   <v name="MAGPOS">      0.00000000      0.00000000      0.00000000</v>
   <i type="logical" name="LNICSALL"> T  </i>
   <i type="logical" name="ORBITALMAG"> F  </i>
   <i type="logical" name="LMAGBLOCH"> F  </i>
   <i type="logical" name="LCHIMAG"> F  </i>
   <i type="logical" name="LGAUGE"> T  </i>
   <i type="int" name="MAGATOM">     0</i>
   <v name="MAGDIPOL">      0.00000000      0.00000000      0.00000000</v>
   <v name="AVECCONST">      0.00000000      0.00000000      0.00000000</v>
  </separator>
  <separator name="response functions" >
   <i type="logical" name="LFINITE_TEMPERATURE"> F  </i>
   <i type="logical" name="LADDER"> F  </i>
   <i type="logical" name="LRPAFORCE"> F  </i>
   <i type="logical" name="LFXC"> F  </i>
   <i type="logical" name="LHARTREE"> T  </i>
   <i type="int" name="IBSE">     0</i>
   <v type="int" name="KPOINT">    -1     0     0     0</v>
   <i type="logical" name="LTCTC"> F  </i>
   <i type="logical" name="LTCTE"> F  </i>
   <i type="logical" name="LTETE"> F  </i>
   <i type="logical" name="LTRIPLET"> F  </i>
   <i type="logical" name="LFXCEPS"> F  </i>
   <i type="logical" name="LFXHEG"> F  </i>
   <i type="int" name="NATURALO">     2</i>
   <i type="logical" name="LHOLEGF"> F  </i>
   <i type="logical" name="L2ORDER"> F  </i>
   <i type="logical" name="LDMP1"> F  </i>
   <i type="logical" name="LMP2LT"> F  </i>
   <i type="logical" name="LSMP2LT"> F  </i>
   <i type="logical" name="LGWLF"> F  </i>
   <i name="ENCUTGW">     -2.00000000</i>
   <i name="ENCUTGWSOFT">     -2.00000000</i>
   <i name="ENCUTLF">     -1.00000000</i>
   <i type="logical" name="LESF_SPLINES"> F  </i>
   <i type="int" name="LMAXMP2">    -1</i>
   <i name="SCISSOR">      0.00000000</i>
   <i type="int" name="NOMEGA">     0</i>
   <i type="int" name="NOMEGAR">     0</i>
   <i type="int" name="NBANDSGW">    -1</i>
   <i type="int" name="NBANDSO">    -1</i>
   <i type="int" name="NBANDSV">    -1</i>
   <i type="int" name="NELM">     1</i>
   <i type="int" name="NELMHF">     1</i>
   <i type="int" name="DIM">     3</i>
   <i type="int" name="IESPILON">     4</i>
   <i type="int" name="ANTIRES">     0</i>
   <i name="OMEGAMAX">    -30.00000000</i>
   <i name="OMEGAMIN">    -30.00000000</i>
   <i name="OMEGATL">   -200.00000000</i>
   <i type="int" name="OMEGAGRID">     0</i>
   <i name="CSHIFT">     -0.10000000</i>
   <i type="logical" name="LSELFENERGY"> F  </i>
   <i type="logical" name="LSPECTRAL"> F  </i>
   <i type="logical" name="LSPECTRALGW"> F  </i>
   <i type="logical" name="LSINGLES"> F  </i>
   <i type="logical" name="LFERMIGW"> F  </i>
   <i type="logical" name="ODDONLYGW"> F  </i>
   <i type="logical" name="EVENONLYGW"> F  </i>
   <i type="int" name="NKREDLFX">     1</i>
   <i type="int" name="NKREDLFY">     1</i>
   <i type="int" name="NKREDLFZ">     1</i>
   <i type="int" name="MAXMEM">  2800</i>
   <i type="int" name="TELESCOPE">     0</i>
   <i type="int" name="NTAUPAR">    -1</i>
   <i type="int" name="NOMEGAPAR">    -1</i>
   <i name="DAMP_NEWTON">      0.80000001</i>
   <i name="LAMBDA">      1.00000000</i>
  </separator>
  <separator name="External order field" >
   <i name="OFIELD_KAPPA">      0.00000000</i>
   <v name="OFIELD_K">      0.00000000      0.00000000      0.00000000</v>
   <i name="OFIELD_Q6_NEAR">      0.00000000</i>
   <i name="OFIELD_Q6_FAR">      0.00000000</i>
   <i name="OFIELD_A">      0.00000000</i>
  </separator>
 </parameters>
 <atominfo>
  <atoms>       3 </atoms>
  <types>       2 </types>
  <array name="atoms" >
   <dimension dim="1">ion</dimension>
   <field type="string">element</field>
   <field type="int">atomtype</field>
   <set>
    <rc><c>H </c><c>   1</c></rc>
    <rc><c>H </c><c>   1</c></rc>
    <rc><c>Be</c><c>   2</c></rc>
   </set>
  </array>
  <array name="atomtypes" >
   <dimension dim="1">type</dimension>
   <field type="int">atomspertype</field>
   <field type="string">element</field>
   <field>mass</field>
   <field>valence</field>
   <field type="string">pseudopotential</field>
   <set>
    <rc><c>   2</c><c>H </c><c>      1.00000000</c><c>      1.00000000</c><c>  PAW_PBE H 15Jun2001                   </c></rc>
    <rc><c>   1</c><c>Be</c><c>      9.01300000</c><c>      2.00000000</c><c>  PAW_PBE Be_GW 04Mar2008               </c></rc>
   </set>
  </array>
 </atominfo>
 <structure name="initialpos" >
  <crystal>
   <varray name="basis" >
    <v>      10.32500005       0.00000000       0.00000000 </v>
    <v>       0.00000000      10.32500005       0.00000000 </v>
    <v>       0.00000000       0.00000000      10.32500005 </v>
   </varray>
   <i name="volume">   1100.70309338 </i>
   <varray name="rec_basis" >
    <v>       0.09685230       0.00000000       0.00000000 </v>
    <v>       0.00000000       0.09685230       0.00000000 </v>
    <v>       0.00000000       0.00000000       0.09685230 </v>
   </varray>
  </crystal>
  <varray name="positions" >
   <v>       0.62881355       0.50000000       0.50000000 </v>
   <v>       0.37118644       0.50000000       0.50000000 </v>
   <v>       0.50000000       0.50000000       0.50000000 </v>
  </varray>
 </structure>
 <calculation>
  <scstep>
   <time name="dav">   93.89   94.57</time>
   <time name="total">   95.14   96.00</time>
   <energy>
    <i name="alphaZ">      0.09131387 </i>
    <i name="ewald">     17.47667994 </i>
    <i name="hartreedc">    -44.41868816 </i>
    <i name="XCdc">      6.76467858 </i>
    <i name="pawpsdc">     19.56108429 </i>
    <i name="pawaedc">    -18.94546289 </i>
    <i name="eentropy">     -0.04975950 </i>
    <i name="bandstr">    -18.85216062 </i>
    <i name="atom">     52.49568407 </i>
    <i name="e_fr_energy">     14.12336958 </i>
    <i name="e_wo_entrp">     14.17312908 </i>
    <i name="e_0_energy">     14.14824933 </i>
   </energy>
  </scstep>
  <scstep>
   <time name="dav">  112.24  113.07</time>
   <time name="total">  112.26  113.08</time>
   <energy>
    <i name="e_fr_energy">     -5.74063149 </i>
    <i name="e_wo_entrp">     -5.74063149 </i>
    <i name="e_0_energy">     -5.74063149 </i>
   </energy>
  </scstep>
  <scstep>
   <time name="dav">  111.41  112.22</time>
   <time name="total">  111.42  112.23</time>
   <energy>
    <i name="e_fr_energy">     -9.92471269 </i>
    <i name="e_wo_entrp">     -9.92471269 </i>
    <i name="e_0_energy">     -9.92471269 </i>
   </energy>
  </scstep>
  <scstep>
   <time name="dav">  128.05  128.99</time>
   <time name="total">  128.06  129.00</time>
   <energy>
    <i name="e_fr_energy">    -10.03686864 </i>
    <i name="e_wo_entrp">    -10.03686864 </i>
    <i name="e_0_energy">    -10.03686864 </i>
   </energy>
  </scstep>
  <scstep>
   <time name="dav">  117.50  118.39</time>
   <time name="total">  121.18  122.08</time>
   <energy>
    <i name="e_fr_energy">    -10.03777652 </i>
    <i name="e_wo_entrp">    -10.03777652 </i>
    <i name="e_0_energy">    -10.03777652 </i>
   </energy>
  </scstep>
  <scstep>
   <time name="dav">  134.80  135.79</time>
   <time name="total">  139.86  140.88</time>
   <energy>
    <i name="e_fr_energy">     -9.03293085 </i>
    <i name="e_wo_entrp">     -9.03293085 </i>
    <i name="e_0_energy">     -9.03293085 </i>
   </energy>
  </scstep>
  <scstep>
   <time name="dav">  145.74  146.81</time>
   <time name="total">  150.72  151.82</time>
   <energy>
    <i name="e_fr_energy">     -8.60912080 </i>
    <i name="e_wo_entrp">     -8.60912080 </i>
    <i name="e_0_energy">     -8.60912080 </i>
   </energy>
  </scstep>
  <scstep>
   <time name="dav">  125.19  126.11</time>
   <time name="total">  130.15  131.10</time>
   <energy>
    <i name="e_fr_energy">     -8.61309001 </i>
    <i name="e_wo_entrp">     -8.61309001 </i>
    <i name="e_0_energy">     -8.61309001 </i>
   </energy>
  </scstep>
  <scstep>
   <time name="dav">  113.12  113.97</time>
   <time name="total">  118.12  119.00</time>
   <energy>
    <i name="e_fr_energy">     -8.61122831 </i>
    <i name="e_wo_entrp">     -8.61122831 </i>
    <i name="e_0_energy">     -8.61122831 </i>
   </energy>
  </scstep>
  <scstep>
   <time name="dav">   98.61   99.34</time>
   <time name="total">  103.55  104.32</time>
   <energy>
    <i name="e_fr_energy">     -8.61619999 </i>
    <i name="e_wo_entrp">     -8.61619999 </i>
    <i name="e_0_energy">     -8.61619999 </i>
   </energy>
  </scstep>
  <scstep>
   <time name="dav">  112.11  112.95</time>
   <time name="total">  117.03  117.91</time>
   <energy>
    <i name="e_fr_energy">     -8.62022501 </i>
    <i name="e_wo_entrp">     -8.62022501 </i>
    <i name="e_0_energy">     -8.62022501 </i>
   </energy>
  </scstep>
  <scstep>
   <time name="dav">  114.09  114.94</time>
   <time name="total">  119.09  119.97</time>
   <energy>
    <i name="e_fr_energy">     -8.62185488 </i>
    <i name="e_wo_entrp">     -8.62185488 </i>
    <i name="e_0_energy">     -8.62185488 </i>
   </energy>
  </scstep>
  <scstep>
   <time name="dav">  107.41  108.22</time>
   <time name="total">  112.39  113.23</time>
   <energy>
    <i name="e_fr_energy">     -8.62355536 </i>
    <i name="e_wo_entrp">     -8.62355536 </i>
    <i name="e_0_energy">     -8.62355536 </i>
   </energy>
  </scstep>
  <scstep>
   <time name="dav">  110.02  110.84</time>
   <time name="total">  114.91  115.78</time>
   <energy>
    <i name="e_fr_energy">     -8.62399633 </i>
    <i name="e_wo_entrp">     -8.62399633 </i>
    <i name="e_0_energy">     -8.62399633 </i>
   </energy>
  </scstep>
  <scstep>
   <time name="dav">  111.04  111.86</time>
   <time name="total">  115.54  116.39</time>
   <energy>
    <i name="e_fr_energy">     -8.62413362 </i>
    <i name="e_wo_entrp">     -8.62413362 </i>
    <i name="e_0_energy">     -8.62413362 </i>
   </energy>
  </scstep>
  <scstep>
   <time name="dav">  110.09  110.86</time>
   <time name="total">  114.96  115.76</time>
   <energy>
    <i name="e_fr_energy">     -8.62414377 </i>
    <i name="e_wo_entrp">     -8.62414377 </i>
    <i name="e_0_energy">     -8.62414377 </i>
   </energy>
  </scstep>
  <scstep>
   <time name="dav">  104.38  105.05</time>
   <time name="total">  109.39  110.09</time>
   <energy>
    <i name="e_fr_energy">     -8.62414911 </i>
    <i name="e_wo_entrp">     -8.62414911 </i>
    <i name="e_0_energy">     -8.62414911 </i>
   </energy>
  </scstep>
  <scstep>
   <time name="dav">  115.63  116.36</time>
   <time name="total">  120.53  121.29</time>
   <energy>
    <i name="e_fr_energy">     -8.62415058 </i>
    <i name="e_wo_entrp">     -8.62415058 </i>
    <i name="e_0_energy">     -8.62415058 </i>
   </energy>
  </scstep>
  <scstep>
   <time name="dav">  100.97  101.59</time>
   <time name="total">  106.00  106.66</time>
   <energy>
    <i name="e_fr_energy">     -8.62415109 </i>
    <i name="e_wo_entrp">     -8.62415109 </i>
    <i name="e_0_energy">     -8.62415109 </i>
   </energy>
  </scstep>
  <scstep>
   <time name="dav">  102.15  102.80</time>
   <time name="total">  107.12  107.80</time>
   <energy>
    <i name="e_fr_energy">     -8.62415147 </i>
    <i name="e_wo_entrp">     -8.62415147 </i>
    <i name="e_0_energy">     -8.62415147 </i>
   </energy>
  </scstep>
  <scstep>
   <time name="dav">  109.29  109.98</time>
   <time name="total">  110.60  111.30</time>
   <energy>
    <i name="alphaZ">      0.09131387 </i>
    <i name="ewald">     17.47667994 </i>
    <i name="hartreedc">    -56.17651886 </i>
    <i name="XCdc">      8.24188447 </i>
    <i name="pawpsdc">     60.75001817 </i>
    <i name="pawaedc">    -60.21076880 </i>
    <i name="eentropy">     -0.00000000 </i>
    <i name="bandstr">    -31.29244438 </i>
    <i name="atom">     52.49568407 </i>
    <i name="e_fr_energy">     -8.62415151 </i>
    <i name="e_wo_entrp">     -8.62415151 </i>
    <i name="e_0_energy">     -8.62415151 </i>
   </energy>
  </scstep>
  <structure>
   <crystal>
    <varray name="basis" >
     <v>      10.32500005       0.00000000       0.00000000 </v>
     <v>       0.00000000      10.32500005       0.00000000 </v>
     <v>       0.00000000       0.00000000      10.32500005 </v>
    </varray>
    <i name="volume">   1100.70309338 </i>
    <varray name="rec_basis" >
     <v>       0.09685230       0.00000000       0.00000000 </v>
     <v>       0.00000000       0.09685230       0.00000000 </v>
     <v>       0.00000000       0.00000000       0.09685230 </v>
    </varray>
   </crystal>
   <varray name="positions" >
    <v>       0.62881355       0.50000000       0.50000000 </v>
    <v>       0.37118644       0.50000000       0.50000000 </v>
    <v>       0.50000000       0.50000000       0.50000000 </v>
   </varray>
  </structure>
  <varray name="forces" >
   <v>       0.13993474       0.00000000       0.00000000 </v>
   <v>      -0.13993474      -0.00000000       0.00000000 </v>
   <v>      -0.00000000      -0.00000000      -0.00000000 </v>
  </varray>
  <varray name="stress" >
   <v>       0.50209863      -0.00000000      -0.00000000 </v>
   <v>       0.00000000      -0.04588064       0.00000000 </v>
   <v>       0.00000000       0.00000000      -0.04588064 </v>
  </varray>
  <energy>
   <i name="e_fr_energy">     -8.62415151 </i>
   <i name="e_wo_entrp">     -8.62415151 </i>
   <i name="e_0_energy">     -8.62415151 </i>
  </energy>
  <time name="totalsc"> 2612.86 2632.56</time>
 </calculation>
 <calculation>
  <scstep>
   <time name="dav">   87.96   88.55</time>
   <time name="total">   92.64   93.26</time>
   <energy>
    <i name="alphaZ">      0.09131387 </i>
    <i name="ewald">     17.23507600 </i>
    <i name="hartreedc">    -56.05403621 </i>
    <i name="XCdc">      8.23291776 </i>
    <i name="pawpsdc">     60.75039309 </i>
    <i name="pawaedc">    -60.21114803 </i>
    <i name="eentropy">     -0.00000000 </i>
    <i name="bandstr">    -31.16566345 </i>
    <i name="atom">     52.49568407 </i>
    <i name="e_fr_energy">     -8.62546291 </i>
    <i name="e_wo_entrp">     -8.62546291 </i>
    <i name="e_0_energy">     -8.62546291 </i>
   </energy>
  </scstep>
  <scstep>
   <time name="dav">  118.46  119.24</time>
   <time name="total">  123.40  124.21</time>
   <energy>
    <i name="e_fr_energy">     -8.62537996 </i>
    <i name="e_wo_entrp">     -8.62537996 </i>
    <i name="e_0_energy">     -8.62537996 </i>
   </energy>
  </scstep>
  <scstep>
   <time name="dav">  116.04  116.83</time>
   <time name="total">  120.86  121.69</time>
   <energy>
    <i name="e_fr_energy">     -8.62533205 </i>
    <i name="e_wo_entrp">     -8.62533205 </i>
    <i name="e_0_energy">     -8.62533205 </i>
   </energy>
  </scstep>
  <scstep>
   <time name="dav">  109.58  110.33</time>
   <time name="total">  114.39  115.17</time>
   <energy>
    <i name="e_fr_energy">     -8.62533460 </i>
    <i name="e_wo_entrp">     -8.62533460 </i>
    <i name="e_0_energy">     -8.62533460 </i>
   </energy>
  </scstep>
  <scstep>
   <time name="dav">  111.72  112.45</time>
   <time name="total">  116.53  117.29</time>
   <energy>
    <i name="e_fr_energy">     -8.62533867 </i>
    <i name="e_wo_entrp">     -8.62533867 </i>
    <i name="e_0_energy">     -8.62533867 </i>
   </energy>
  </scstep>
  <scstep>
   <time name="dav">  110.93  111.67</time>
   <time name="total">  115.69  116.45</time>
   <energy>
    <i name="e_fr_energy">     -8.62534132 </i>
    <i name="e_wo_entrp">     -8.62534132 </i>
    <i name="e_0_energy">     -8.62534132 </i>
   </energy>
  </scstep>
  <scstep>
   <time name="dav">  109.78  110.53</time>
   <time name="total">  114.64  115.43</time>
   <energy>
    <i name="e_fr_energy">     -8.62534347 </i>
    <i name="e_wo_entrp">     -8.62534347 </i>
    <i name="e_0_energy">     -8.62534347 </i>
   </energy>
  </scstep>
  <scstep>
   <time name="dav">  112.47  113.22</time>
   <time name="total">  117.37  118.15</time>
   <energy>
    <i name="e_fr_energy">     -8.62534406 </i>
    <i name="e_wo_entrp">     -8.62534406 </i>
    <i name="e_0_energy">     -8.62534406 </i>
   </energy>
  </scstep>
  <scstep>
   <time name="dav">  103.32  104.01</time>
   <time name="total">  108.14  108.86</time>
   <energy>
    <i name="e_fr_energy">     -8.62534428 </i>
    <i name="e_wo_entrp">     -8.62534428 </i>
    <i name="e_0_energy">     -8.62534428 </i>
   </energy>
  </scstep>
  <scstep>
   <time name="dav">  106.24  106.95</time>
   <time name="total">  107.53  108.25</time>
   <energy>
    <i name="alphaZ">      0.09131387 </i>
    <i name="ewald">     17.23507600 </i>
    <i name="hartreedc">    -55.96314048 </i>
    <i name="XCdc">      8.22406417 </i>
    <i name="pawpsdc">     59.77550378 </i>
    <i name="pawaedc">    -59.23456317 </i>
    <i name="eentropy">     -0.00000000 </i>
    <i name="bandstr">    -31.24928259 </i>
    <i name="atom">     52.49568407 </i>
    <i name="e_fr_energy">     -8.62534434 </i>
    <i name="e_wo_entrp">     -8.62534434 </i>
    <i name="e_0_energy">     -8.62534434 </i>
   </energy>
  </scstep>
  <structure>
   <crystal>
    <varray name="basis" >
     <v>      10.32500005       0.00000000       0.00000000 </v>
     <v>       0.00000000      10.32500005       0.00000000 </v>
     <v>       0.00000000       0.00000000      10.32500005 </v>
    </varray>
    <i name="volume">   1100.70309338 </i>
    <varray name="rec_basis" >
     <v>       0.09685230       0.00000000       0.00000000 </v>
     <v>       0.00000000       0.09685230       0.00000000 </v>
     <v>       0.00000000       0.00000000       0.09685230 </v>
    </varray>
   </crystal>
   <varray name="positions" >
    <v>       0.62946739       0.50000000       0.50000000 </v>
    <v>       0.37053260       0.50000000       0.50000000 </v>
    <v>       0.50000000       0.50000000       0.50000000 </v>
   </varray>
  </structure>
  <varray name="forces" >
   <v>       0.03783999      -0.00000000      -0.00000000 </v>
   <v>      -0.03783999       0.00000000      -0.00000000 </v>
   <v>      -0.00000000      -0.00000000       0.00000000 </v>
  </varray>
  <varray name="stress" >
   <v>       0.10855695      -0.00000000      -0.00000000 </v>
   <v>       0.00000000      -0.04560666       0.00000000 </v>
   <v>      -0.00000000       0.00000000      -0.04560666 </v>
  </varray>
  <energy>
   <i name="e_fr_energy">     -8.62534434 </i>
   <i name="e_wo_entrp">     -8.62534434 </i>
   <i name="e_0_energy">     -8.62534434 </i>
  </energy>
  <time name="totalsc"> 1284.84 1294.44</time>
 </calculation>
 <calculation>
  <scstep>
   <time name="dav">   81.12   81.63</time>
   <time name="total">   85.46   85.99</time>
   <energy>
    <i name="alphaZ">      0.09131387 </i>
    <i name="ewald">     17.14207288 </i>
    <i name="hartreedc">    -55.91579920 </i>
    <i name="XCdc">      8.22059342 </i>
    <i name="pawpsdc">     59.77543245 </i>
    <i name="pawaedc">    -59.23449161 </i>
    <i name="eentropy">     -0.00000000 </i>
    <i name="bandstr">    -31.20026353 </i>
    <i name="atom">     52.49568407 </i>
    <i name="e_fr_energy">     -8.62545765 </i>
    <i name="e_wo_entrp">     -8.62545765 </i>
    <i name="e_0_energy">     -8.62545765 </i>
   </energy>
  </scstep>
  <scstep>
   <time name="dav">   95.11   95.67</time>
   <time name="total">   99.28   99.87</time>
   <energy>
    <i name="e_fr_energy">     -8.62544470 </i>
    <i name="e_wo_entrp">     -8.62544469 </i>
    <i name="e_0_energy">     -8.62544469 </i>
   </energy>
  </scstep>
  <scstep>
   <time name="dav">  101.14  101.74</time>
   <time name="total">  105.41  106.04</time>
   <energy>
    <i name="e_fr_energy">     -8.62543659 </i>
    <i name="e_wo_entrp">     -8.62543659 </i>
    <i name="e_0_energy">     -8.62543659 </i>
   </energy>
  </scstep>
  <scstep>
   <time name="dav">   83.96   84.41</time>
   <time name="total">   87.77   88.24</time>
   <energy>
    <i name="e_fr_energy">     -8.62543694 </i>
    <i name="e_wo_entrp">     -8.62543694 </i>
    <i name="e_0_energy">     -8.62543694 </i>
   </energy>
  </scstep>
  <scstep>
   <time name="dav">   75.90   76.28</time>
   <time name="total">   79.58   79.97</time>
   <energy>
    <i name="e_fr_energy">     -8.62543761 </i>
    <i name="e_wo_entrp">     -8.62543761 </i>
    <i name="e_0_energy">     -8.62543761 </i>
   </energy>
  </scstep>
  <scstep>
   <time name="dav">   75.18   75.55</time>
   <time name="total">   78.83   79.22</time>
   <energy>
    <i name="e_fr_energy">     -8.62543822 </i>
    <i name="e_wo_entrp">     -8.62543822 </i>
    <i name="e_0_energy">     -8.62543822 </i>
   </energy>
  </scstep>
  <scstep>
   <time name="dav">   77.34   77.71</time>
   <time name="total">   80.74   81.12</time>
   <energy>
    <i name="e_fr_energy">     -8.62543872 </i>
    <i name="e_wo_entrp">     -8.62543872 </i>
    <i name="e_0_energy">     -8.62543872 </i>
   </energy>
  </scstep>
  <scstep>
   <time name="dav">   70.13   70.40</time>
   <time name="total">   73.33   73.61</time>
   <energy>
    <i name="e_fr_energy">     -8.62543895 </i>
    <i name="e_wo_entrp">     -8.62543895 </i>
    <i name="e_0_energy">     -8.62543895 </i>
   </energy>
  </scstep>
  <scstep>
   <time name="dav">   66.88   67.08</time>
   <time name="total">   67.85   68.05</time>
   <energy>
    <i name="alphaZ">      0.09131387 </i>
    <i name="ewald">     17.14207288 </i>
    <i name="hartreedc">    -55.88061997 </i>
    <i name="XCdc">      8.21716661 </i>
    <i name="pawpsdc">     59.40279620 </i>
    <i name="pawaedc">    -58.86120369 </i>
    <i name="eentropy">     -0.00000000 </i>
    <i name="bandstr">    -31.23264900 </i>
    <i name="atom">     52.49568407 </i>
    <i name="e_fr_energy">     -8.62543902 </i>
    <i name="e_wo_entrp">     -8.62543902 </i>
    <i name="e_0_energy">     -8.62543902 </i>
   </energy>
  </scstep>
  <structure>
   <crystal>
    <varray name="basis" >
     <v>      10.32500005       0.00000000       0.00000000 </v>
     <v>       0.00000000      10.32500005       0.00000000 </v>
     <v>       0.00000000       0.00000000      10.32500005 </v>
    </varray>
    <i name="volume">   1100.70309338 </i>
    <varray name="rec_basis" >
     <v>       0.09685230       0.00000000       0.00000000 </v>
     <v>       0.00000000       0.09685230       0.00000000 </v>
     <v>       0.00000000       0.00000000       0.09685230 </v>
    </varray>
   </crystal>
   <varray name="positions" >
    <v>       0.62972090       0.50000000       0.50000000 </v>
    <v>       0.37027909       0.50000000       0.50000000 </v>
    <v>       0.50000000       0.50000000       0.50000000 </v>
   </varray>
  </structure>
  <varray name="forces" >
   <v>      -0.00099769       0.00000000      -0.00000000 </v>
   <v>       0.00099769      -0.00000000       0.00000000 </v>
   <v>      -0.00000000       0.00000000       0.00000000 </v>
  </varray>
  <varray name="stress" >
   <v>      -0.04212480       0.00000000       0.00000000 </v>
   <v>       0.00000000      -0.04545551       0.00000000 </v>
   <v>       0.00000000      -0.00000000      -0.04545551 </v>
  </varray>
  <energy>
   <i name="e_fr_energy">     -8.62543902 </i>
   <i name="e_wo_entrp">     -8.62543902 </i>
   <i name="e_0_energy">     -8.62543902 </i>
  </energy>
  <time name="totalsc">  875.12  884.94</time>
  <eigenvalues>
   <array>
    <dimension dim="1">band</dimension>
    <dimension dim="2">kpoint</dimension>
    <dimension dim="3">spin</dimension>
    <field>eigene</field>
    <field>occ</field>
    <set>
     <set comment="spin 1">
      <set comment="kpoint 1">
       <r>   -8.2711    1.0000 </r>
       <r>   -7.3452    1.0000 </r>
       <r>   -1.4965    0.0000 </r>
       <r>   -1.4965    0.0000 </r>
       <r>   -0.2041    0.0000 </r>
       <r>    0.6511    0.0000 </r>
      </set>
      <set comment="kpoint 2">
       <r>   -8.2711    1.0000 </r>
       <r>   -7.3452    1.0000 </r>
       <r>   -1.4963    0.0000 </r>
       <r>   -1.4963    0.0000 </r>
       <r>   -0.1986    0.0000 </r>
       <r>    0.6324    0.0000 </r>
      </set>
      <set comment="kpoint 3">
       <r>   -8.2711    1.0000 </r>
       <r>   -7.3452    1.0000 </r>
       <r>   -1.4978    0.0000 </r>
       <r>   -1.4963    0.0000 </r>
       <r>   -0.1959    0.0000 </r>
       <r>    0.6539    0.0000 </r>
      </set>
      <set comment="kpoint 4">
       <r>   -8.2711    1.0000 </r>
       <r>   -7.3452    1.0000 </r>
       <r>   -1.4959    0.0000 </r>
       <r>   -1.4959    0.0000 </r>
       <r>   -0.1821    0.0000 </r>
       <r>    0.5806    0.0000 </r>
      </set>
      <set comment="kpoint 5">
       <r>   -8.2711    1.0000 </r>
       <r>   -7.3452    1.0000 </r>
       <r>   -1.5016    0.0000 </r>
       <r>   -1.4960    0.0000 </r>
       <r>   -0.1719    0.0000 </r>
       <r>    0.6617    0.0000 </r>
      </set>
      <set comment="kpoint 6">
       <r>   -8.2711    1.0000 </r>
       <r>   -7.3453    1.0000 </r>
       <r>   -1.4953    0.0000 </r>
       <r>   -1.4953    0.0000 </r>
       <r>   -0.1550    0.0000 </r>
       <r>    0.5063    0.0000 </r>
      </set>
      <set comment="kpoint 7">
       <r>   -8.2711    1.0000 </r>
       <r>   -7.3452    1.0000 </r>
       <r>   -1.5071    0.0000 </r>
       <r>   -1.4955    0.0000 </r>
       <r>   -0.1331    0.0000 </r>
       <r>    0.6723    0.0000 </r>
      </set>
      <set comment="kpoint 8">
       <r>   -8.2710    1.0000 </r>
       <r>   -7.3453    1.0000 </r>
       <r>   -1.4947    0.0000 </r>
       <r>   -1.4947    0.0000 </r>
       <r>   -0.1176    0.0000 </r>
       <r>    0.4208    0.0000 </r>
      </set>
      <set comment="kpoint 9">
       <r>   -8.2711    1.0000 </r>
       <r>   -7.3451    1.0000 </r>
       <r>   -1.5133    0.0000 </r>
       <r>   -1.4950    0.0000 </r>
       <r>   -0.0817    0.0000 </r>
       <r>    0.6734    0.0000 </r>
      </set>
      <set comment="kpoint 10">
       <r>   -8.2710    1.0000 </r>
       <r>   -7.3454    1.0000 </r>
       <r>   -1.4940    0.0000 </r>
       <r>   -1.4940    0.0000 </r>
       <r>   -0.0709    0.0000 </r>
       <r>    0.3327    0.0000 </r>
      </set>
      <set comment="kpoint 11">
       <r>   -8.2711    1.0000 </r>
       <r>   -7.3451    1.0000 </r>
       <r>   -1.5190    0.0000 </r>
       <r>   -1.4945    0.0000 </r>
       <r>   -0.0211    0.0000 </r>
       <r>    0.5922    0.0000 </r>
      </set>
      <set comment="kpoint 12">
       <r>   -8.2710    1.0000 </r>
       <r>   -7.3454    1.0000 </r>
       <r>   -1.4935    0.0000 </r>
       <r>   -1.4935    0.0000 </r>
       <r>   -0.0178    0.0000 </r>
       <r>    0.2497    0.0000 </r>
      </set>
      <set comment="kpoint 13">
       <r>   -8.2711    1.0000 </r>
       <r>   -7.3452    1.0000 </r>
       <r>   -1.5235    0.0000 </r>
       <r>   -1.4941    0.0000 </r>
       <r>    0.0417    0.0000 </r>
       <r>    0.4919    0.0000 </r>
      </set>
      <set comment="kpoint 14">
       <r>   -8.2710    1.0000 </r>
       <r>   -7.3454    1.0000 </r>
       <r>   -1.4932    0.0000 </r>
       <r>   -1.4932    0.0000 </r>
       <r>    0.0308    0.0000 </r>
       <r>    0.1856    0.0000 </r>
      </set>
      <set comment="kpoint 15">
       <r>   -8.2711    1.0000 </r>
       <r>   -7.3451    1.0000 </r>
       <r>   -1.5259    0.0000 </r>
       <r>   -1.4938    0.0000 </r>
       <r>    0.0890    0.0000 </r>
       <r>    0.4249    0.0000 </r>
      </set>
      <set comment="kpoint 16">
       <r>   -8.2711    1.0000 </r>
       <r>   -7.3452    1.0000 </r>
       <r>   -1.4977    0.0000 </r>
       <r>   -1.4962    0.0000 </r>
       <r>   -0.1904    0.0000 </r>
       <r>    0.6356    0.0000 </r>
      </set>
      <set comment="kpoint 17">
       <r>   -8.2711    1.0000 </r>
       <r>   -7.3452    1.0000 </r>
       <r>   -1.4978    0.0000 </r>
       <r>   -1.4975    0.0000 </r>
       <r>   -0.1878    0.0000 </r>
       <r>    0.6566    0.0000 </r>
      </set>
      <set comment="kpoint 18">
       <r>   -8.2711    1.0000 </r>
       <r>   -7.3452    1.0000 </r>
       <r>   -1.4973    0.0000 </r>
       <r>   -1.4958    0.0000 </r>
       <r>   -0.1740    0.0000 </r>
       <r>    0.5847    0.0000 </r>
      </set>
      <set comment="kpoint 19">
       <r>   -8.2711    1.0000 </r>
       <r>   -7.3452    1.0000 </r>
       <r>   -1.5015    0.0000 </r>
       <r>   -1.4973    0.0000 </r>
       <r>   -0.1637    0.0000 </r>
       <r>    0.6643    0.0000 </r>
      </set>
      <set comment="kpoint 20">
       <r>   -8.2711    1.0000 </r>
       <r>   -7.3452    1.0000 </r>
       <r>   -1.5014    0.0000 </r>
       <r>   -1.4959    0.0000 </r>
       <r>   -0.1664    0.0000 </r>
       <r>    0.6448    0.0000 </r>
      </set>
      <set comment="kpoint 21">
       <r>   -8.2711    1.0000 </r>
       <r>   -7.3453    1.0000 </r>
       <r>   -1.4966    0.0000 </r>
       <r>   -1.4952    0.0000 </r>
       <r>   -0.1469    0.0000 </r>
       <r>    0.5113    0.0000 </r>
      </set>
      <set comment="kpoint 22">
       <r>   -8.2711    1.0000 </r>
       <r>   -7.3451    1.0000 </r>
       <r>   -1.5069    0.0000 </r>
       <r>   -1.4968    0.0000 </r>
       <r>   -0.1250    0.0000 </r>
       <r>    0.6748    0.0000 </r>
      </set>
      <set comment="kpoint 23">
       <r>   -8.2711    1.0000 </r>
       <r>   -7.3452    1.0000 </r>
       <r>   -1.5069    0.0000 </r>
       <r>   -1.4954    0.0000 </r>
       <r>   -0.1277    0.0000 </r>
       <r>    0.6580    0.0000 </r>
      </set>
      <set comment="kpoint 24">
       <r>   -8.2710    1.0000 </r>
       <r>   -7.3453    1.0000 </r>
       <r>   -1.4959    0.0000 </r>
       <r>   -1.4945    0.0000 </r>
       <r>   -0.1095    0.0000 </r>
       <r>    0.4263    0.0000 </r>
      </set>
      <set comment="kpoint 25">
       <r>   -8.2711    1.0000 </r>
       <r>   -7.3451    1.0000 </r>
       <r>   -1.5131    0.0000 </r>
       <r>   -1.4963    0.0000 </r>
       <r>   -0.0735    0.0000 </r>
       <r>    0.6760    0.0000 </r>
      </set>
      <set comment="kpoint 26">
       <r>   -8.2711    1.0000 </r>
       <r>   -7.3452    1.0000 </r>
       <r>   -1.5131    0.0000 </r>
       <r>   -1.4949    0.0000 </r>
       <r>   -0.0763    0.0000 </r>
       <r>    0.6669    0.0000 </r>
      </set>
      <set comment="kpoint 27">
       <r>   -8.2710    1.0000 </r>
       <r>   -7.3454    1.0000 </r>
       <r>   -1.4953    0.0000 </r>
       <r>   -1.4939    0.0000 </r>
       <r>   -0.0629    0.0000 </r>
       <r>    0.3386    0.0000 </r>
      </set>
      <set comment="kpoint 28">
       <r>   -8.2711    1.0000 </r>
       <r>   -7.3451    1.0000 </r>
       <r>   -1.5189    0.0000 </r>
       <r>   -1.4957    0.0000 </r>
       <r>   -0.0128    0.0000 </r>
       <r>    0.5971    0.0000 </r>
      </set>
      <set comment="kpoint 29">
       <r>   -8.2711    1.0000 </r>
       <r>   -7.3452    1.0000 </r>
       <r>   -1.5188    0.0000 </r>
       <r>   -1.4943    0.0000 </r>
       <r>   -0.0157    0.0000 </r>
       <r>    0.5965    0.0000 </r>
      </set>
      <set comment="kpoint 30">
       <r>   -8.2710    1.0000 </r>
       <r>   -7.3454    1.0000 </r>
       <r>   -1.4947    0.0000 </r>
       <r>   -1.4934    0.0000 </r>
       <r>   -0.0097    0.0000 </r>
       <r>    0.2557    0.0000 </r>
      </set>
      <set comment="kpoint 31">
       <r>   -8.2711    1.0000 </r>
       <r>   -7.3451    1.0000 </r>
       <r>   -1.5233    0.0000 </r>
       <r>   -1.4953    0.0000 </r>
       <r>    0.0503    0.0000 </r>
       <r>    0.4969    0.0000 </r>
      </set>
      <set comment="kpoint 32">
       <r>   -8.2711    1.0000 </r>
       <r>   -7.3452    1.0000 </r>
       <r>   -1.5233    0.0000 </r>
       <r>   -1.4939    0.0000 </r>
       <r>    0.0470    0.0000 </r>
       <r>    0.4963    0.0000 </r>
      </set>
      <set comment="kpoint 33">
       <r>   -8.2710    1.0000 </r>
       <r>   -7.3455    1.0000 </r>
       <r>   -1.4945    0.0000 </r>
       <r>   -1.4931    0.0000 </r>
       <r>    0.0392    0.0000 </r>
       <r>    0.1913    0.0000 </r>
      </set>
      <set comment="kpoint 34">
       <r>   -8.2711    1.0000 </r>
       <r>   -7.3451    1.0000 </r>
       <r>   -1.5257    0.0000 </r>
       <r>   -1.4951    0.0000 </r>
       <r>    0.0979    0.0000 </r>
       <r>    0.4295    0.0000 </r>
      </set>
      <set comment="kpoint 35">
       <r>   -8.2711    1.0000 </r>
       <r>   -7.3452    1.0000 </r>
       <r>   -1.5257    0.0000 </r>
       <r>   -1.4937    0.0000 </r>
       <r>    0.0943    0.0000 </r>
       <r>    0.4292    0.0000 </r>
      </set>
      <set comment="kpoint 36">
       <r>   -8.2711    1.0000 </r>
       <r>   -7.3452    1.0000 </r>
       <r>   -1.5010    0.0000 </r>
       <r>   -1.4955    0.0000 </r>
       <r>   -0.1501    0.0000 </r>
       <r>    0.5968    0.0000 </r>
      </set>
      <set comment="kpoint 37">
       <r>   -8.2711    1.0000 </r>
       <r>   -7.3452    1.0000 </r>
       <r>   -1.5016    0.0000 </r>
       <r>   -1.5006    0.0000 </r>
       <r>   -0.1397    0.0000 </r>
       <r>    0.6717    0.0000 </r>
      </set>
      <set comment="kpoint 38">
       <r>   -8.2711    1.0000 </r>
       <r>   -7.3453    1.0000 </r>
       <r>   -1.5003    0.0000 </r>
       <r>   -1.4949    0.0000 </r>
       <r>   -0.1231    0.0000 </r>
       <r>    0.5261    0.0000 </r>
      </set>
      <set comment="kpoint 39">
       <r>   -8.2711    1.0000 </r>
       <r>   -7.3452    1.0000 </r>
       <r>   -1.5066    0.0000 </r>
       <r>   -1.5005    0.0000 </r>
       <r>   -0.1009    0.0000 </r>
       <r>    0.6816    0.0000 </r>
      </set>
      <set comment="kpoint 40">
       <r>   -8.2711    1.0000 </r>
       <r>   -7.3452    1.0000 </r>
       <r>   -1.5064    0.0000 </r>
       <r>   -1.4950    0.0000 </r>
       <r>   -0.1115    0.0000 </r>
       <r>    0.6155    0.0000 </r>
      </set>
      <set comment="kpoint 41">
       <r>   -8.2710    1.0000 </r>
       <r>   -7.3453    1.0000 </r>
       <r>   -1.4995    0.0000 </r>
       <r>   -1.4942    0.0000 </r>
       <r>   -0.0858    0.0000 </r>
       <r>    0.4429    0.0000 </r>
      </set>
      <set comment="kpoint 42">
       <r>   -8.2711    1.0000 </r>
       <r>   -7.3451    1.0000 </r>
       <r>   -1.5126    0.0000 </r>
       <r>   -1.4999    0.0000 </r>
       <r>   -0.0493    0.0000 </r>
       <r>    0.6830    0.0000 </r>
      </set>
      <set comment="kpoint 43">
       <r>   -8.2711    1.0000 </r>
       <r>   -7.3452    1.0000 </r>
       <r>   -1.5125    0.0000 </r>
       <r>   -1.4945    0.0000 </r>
       <r>   -0.0603    0.0000 </r>
       <r>    0.6373    0.0000 </r>
      </set>
      <set comment="kpoint 44">
       <r>   -8.2710    1.0000 </r>
       <r>   -7.3454    1.0000 </r>
       <r>   -1.4988    0.0000 </r>
       <r>   -1.4936    0.0000 </r>
       <r>   -0.0393    0.0000 </r>
       <r>    0.3562    0.0000 </r>
      </set>
      <set comment="kpoint 45">
       <r>   -8.2711    1.0000 </r>
       <r>   -7.3452    1.0000 </r>
       <r>   -1.5183    0.0000 </r>
       <r>   -1.4993    0.0000 </r>
       <r>    0.0118    0.0000 </r>
       <r>    0.6112    0.0000 </r>
      </set>
      <set comment="kpoint 46">
       <r>   -8.2711    1.0000 </r>
       <r>   -7.3452    1.0000 </r>
       <r>   -1.5182    0.0000 </r>
       <r>   -1.4940    0.0000 </r>
       <r>    0.0002    0.0000 </r>
       <r>    0.6092    0.0000 </r>
      </set>
      <set comment="kpoint 47">
       <r>   -8.2710    1.0000 </r>
       <r>   -7.3454    1.0000 </r>
       <r>   -1.4982    0.0000 </r>
       <r>   -1.4931    0.0000 </r>
       <r>    0.0141    0.0000 </r>
       <r>    0.2736    0.0000 </r>
      </set>
      <set comment="kpoint 48">
       <r>   -8.2711    1.0000 </r>
       <r>   -7.3451    1.0000 </r>
       <r>   -1.5227    0.0000 </r>
       <r>   -1.4988    0.0000 </r>
       <r>    0.0755    0.0000 </r>
       <r>    0.5117    0.0000 </r>
      </set>
      <set comment="kpoint 49">
       <r>   -8.2711    1.0000 </r>
       <r>   -7.3452    1.0000 </r>
       <r>   -1.5226    0.0000 </r>
       <r>   -1.4935    0.0000 </r>
       <r>    0.0629    0.0000 </r>
       <r>    0.5095    0.0000 </r>
      </set>
      <set comment="kpoint 50">
       <r>   -8.2710    1.0000 </r>
       <r>   -7.3455    1.0000 </r>
       <r>   -1.4979    0.0000 </r>
       <r>   -1.4928    0.0000 </r>
       <r>    0.0640    0.0000 </r>
       <r>    0.2085    0.0000 </r>
      </set>
      <set comment="kpoint 51">
       <r>   -8.2711    1.0000 </r>
       <r>   -7.3451    1.0000 </r>
       <r>   -1.5251    0.0000 </r>
       <r>   -1.4985    0.0000 </r>
       <r>    0.1242    0.0000 </r>
       <r>    0.4435    0.0000 </r>
      </set>
      <set comment="kpoint 52">
       <r>   -8.2711    1.0000 </r>
       <r>   -7.3452    1.0000 </r>
       <r>   -1.5250    0.0000 </r>
       <r>   -1.4933    0.0000 </r>
       <r>    0.1102    0.0000 </r>
       <r>    0.4421    0.0000 </r>
      </set>
      <set comment="kpoint 53">
       <r>   -8.2711    1.0000 </r>
       <r>   -7.3453    1.0000 </r>
       <r>   -1.5056    0.0000 </r>
       <r>   -1.4944    0.0000 </r>
       <r>   -0.0847    0.0000 </r>
       <r>    0.5495    0.0000 </r>
      </set>
      <set comment="kpoint 54">
       <r>   -8.2711    1.0000 </r>
       <r>   -7.3451    1.0000 </r>
       <r>   -1.5066    0.0000 </r>
       <r>   -1.5051    0.0000 </r>
       <r>   -0.0620    0.0000 </r>
       <r>    0.6906    0.0000 </r>
      </set>
      <set comment="kpoint 55">
       <r>   -8.2710    1.0000 </r>
       <r>   -7.3453    1.0000 </r>
       <r>   -1.5048    0.0000 </r>
       <r>   -1.4938    0.0000 </r>
       <r>   -0.0477    0.0000 </r>
       <r>    0.4695    0.0000 </r>
      </set>
      <set comment="kpoint 56">
       <r>   -8.2711    1.0000 </r>
       <r>   -7.3452    1.0000 </r>
       <r>   -1.5120    0.0000 </r>
       <r>   -1.5050    0.0000 </r>
       <r>   -0.0102    0.0000 </r>
       <r>    0.6922    0.0000 </r>
      </set>
      <set comment="kpoint 57">
       <r>   -8.2711    1.0000 </r>
       <r>   -7.3453    1.0000 </r>
       <r>   -1.5116    0.0000 </r>
       <r>   -1.4939    0.0000 </r>
       <r>   -0.0337    0.0000 </r>
       <r>    0.5797    0.0000 </r>
      </set>
      <set comment="kpoint 58">
       <r>   -8.2710    1.0000 </r>
       <r>   -7.3454    1.0000 </r>
       <r>   -1.5040    0.0000 </r>
       <r>   -1.4931    0.0000 </r>
       <r>   -0.0013    0.0000 </r>
       <r>    0.3848    0.0000 </r>
      </set>
      <set comment="kpoint 59">
       <r>   -8.2711    1.0000 </r>
       <r>   -7.3451    1.0000 </r>
       <r>   -1.5176    0.0000 </r>
       <r>   -1.5044    0.0000 </r>
       <r>    0.0513    0.0000 </r>
       <r>    0.6327    0.0000 </r>
      </set>
      <set comment="kpoint 60">
       <r>   -8.2711    1.0000 </r>
       <r>   -7.3453    1.0000 </r>
       <r>   -1.5173    0.0000 </r>
       <r>   -1.4934    0.0000 </r>
       <r>    0.0265    0.0000 </r>
       <r>    0.6114    0.0000 </r>
      </set>
      <set comment="kpoint 61">
       <r>   -8.2710    1.0000 </r>
       <r>   -7.3454    1.0000 </r>
       <r>   -1.5033    0.0000 </r>
       <r>   -1.4926    0.0000 </r>
       <r>    0.0524    0.0000 </r>
       <r>    0.3030    0.0000 </r>
      </set>
      <set comment="kpoint 62">
       <r>   -8.2711    1.0000 </r>
       <r>   -7.3451    1.0000 </r>
       <r>   -1.5219    0.0000 </r>
       <r>   -1.5039    0.0000 </r>
       <r>    0.1161    0.0000 </r>
       <r>    0.5359    0.0000 </r>
      </set>
      <set comment="kpoint 63">
       <r>   -8.2710    1.0000 </r>
       <r>   -7.3453    1.0000 </r>
       <r>   -1.5216    0.0000 </r>
       <r>   -1.4930    0.0000 </r>
       <r>    0.0890    0.0000 </r>
       <r>    0.5313    0.0000 </r>
      </set>
      <set comment="kpoint 64">
       <r>   -8.2710    1.0000 </r>
       <r>   -7.3455    1.0000 </r>
       <r>   -1.5030    0.0000 </r>
       <r>   -1.4924    0.0000 </r>
       <r>    0.1039    0.0000 </r>
       <r>    0.2368    0.0000 </r>
      </set>
      <set comment="kpoint 65">
       <r>   -8.2711    1.0000 </r>
       <r>   -7.3451    1.0000 </r>
       <r>   -1.5242    0.0000 </r>
       <r>   -1.5036    0.0000 </r>
       <r>    0.1664    0.0000 </r>
       <r>    0.4669    0.0000 </r>
      </set>
      <set comment="kpoint 66">
       <r>   -8.2710    1.0000 </r>
       <r>   -7.3452    1.0000 </r>
       <r>   -1.5240    0.0000 </r>
       <r>   -1.4928    0.0000 </r>
       <r>    0.1363    0.0000 </r>
       <r>    0.4638    0.0000 </r>
      </set>
      <set comment="kpoint 67">
       <r>   -8.2710    1.0000 </r>
       <r>   -7.3453    1.0000 </r>
       <r>   -1.5107    0.0000 </r>
       <r>   -1.4932    0.0000 </r>
       <r>    0.0030    0.0000 </r>
       <r>    0.5047    0.0000 </r>
      </set>
      <set comment="kpoint 68">
       <r>   -8.2711    1.0000 </r>
       <r>   -7.3451    1.0000 </r>
       <r>   -1.5119    0.0000 </r>
       <r>   -1.5102    0.0000 </r>
       <r>    0.0419    0.0000 </r>
       <r>    0.6955    0.0000 </r>
      </set>
      <set comment="kpoint 69">
       <r>   -8.2710    1.0000 </r>
       <r>   -7.3454    1.0000 </r>
       <r>   -1.5098    0.0000 </r>
       <r>   -1.4926    0.0000 </r>
       <r>    0.0492    0.0000 </r>
       <r>    0.4231    0.0000 </r>
      </set>
[...]
       <r>   -7.3455    1.0000 </r>
       <r>   -1.5116    0.0000 </r>
       <r>   -1.5106    0.0000 </r>
       <r>    0.4044    0.0000 </r>
       <r>    0.4707    0.0000 </r>
      </set>
      <set comment="kpoint 275">
       <r>   -8.2710    1.0000 </r>
       <r>   -7.3454    1.0000 </r>
       <r>   -1.5184    0.0000 </r>
       <r>   -1.5113    0.0000 </r>
       <r>    0.4092    0.0000 </r>
       <r>    0.6572    0.0000 </r>
      </set>
      <set comment="kpoint 276">
       <r>   -8.2709    1.0000 </r>
       <r>   -7.3454    1.0000 </r>
       <r>   -1.5155    0.0000 </r>
       <r>   -1.5109    0.0000 </r>
       <r>    0.4078    0.0000 </r>
       <r>    0.5934    0.0000 </r>
      </set>
      <set comment="kpoint 277">
       <r>   -8.2710    1.0000 </r>
       <r>   -7.3454    1.0000 </r>
       <r>   -1.5158    0.0000 </r>
       <r>   -1.5153    0.0000 </r>
       <r>    0.4218    0.0000 </r>
       <r>    0.6947    0.0000 </r>
      </set>
      <set comment="kpoint 278">
       <r>   -8.2709    1.0000 </r>
       <r>   -7.3455    1.0000 </r>
       <r>   -1.5151    0.0000 </r>
       <r>   -1.5105    0.0000 </r>
       <r>    0.4654    0.0000 </r>
       <r>    0.5298    0.0000 </r>
      </set>
      <set comment="kpoint 279">
       <r>   -8.2710    1.0000 </r>
       <r>   -7.3454    1.0000 </r>
       <r>   -1.5177    0.0000 </r>
       <r>   -1.5152    0.0000 </r>
       <r>    0.4741    0.0000 </r>
       <r>    0.7073    0.0000 </r>
      </set>
      <set comment="kpoint 280">
       <r>   -8.2709    1.0000 </r>
       <r>   -7.3454    1.0000 </r>
       <r>   -1.5176    0.0000 </r>
       <r>   -1.5106    0.0000 </r>
       <r>    0.4587    0.0000 </r>
       <r>    0.6346    0.0000 </r>
      </set>
      <set comment="kpoint 281">
       <r>   -8.2709    1.0000 </r>
       <r>   -7.3455    1.0000 </r>
       <r>   -1.5172    0.0000 </r>
       <r>   -1.5102    0.0000 </r>
       <r>    0.5125    0.0000 </r>
       <r>    0.5778    0.0000 </r>
      </set>
      <set comment="kpoint 282">
       <r>   -8.2709    1.0000 </r>
       <r>   -7.3454    1.0000 </r>
       <r>   -1.5174    0.0000 </r>
       <r>   -1.5173    0.0000 </r>
       <r>    0.5238    0.0000 </r>
       <r>    0.7526    0.0000 </r>
      </set>
      <set comment="kpoint 283">
       <r>   -8.2709    1.0000 </r>
       <r>   -7.3454    1.0000 </r>
       <r>   -1.5150    0.0000 </r>
       <r>   -1.5146    0.0000 </r>
       <r>    0.4709    0.0000 </r>
       <r>    0.6483    0.0000 </r>
      </set>
      <set comment="kpoint 284">
       <r>   -8.2709    1.0000 </r>
       <r>   -7.3455    1.0000 </r>
       <r>   -1.5146    0.0000 </r>
       <r>   -1.5142    0.0000 </r>
       <r>    0.5231    0.0000 </r>
       <r>    0.5936    0.0000 </r>
      </set>
      <set comment="kpoint 285">
       <r>   -8.2709    1.0000 </r>
       <r>   -7.3454    1.0000 </r>
       <r>   -1.5169    0.0000 </r>
       <r>   -1.5145    0.0000 </r>
       <r>    0.5209    0.0000 </r>
       <r>    0.6911    0.0000 </r>
      </set>
      <set comment="kpoint 286">
       <r>   -8.2709    1.0000 </r>
       <r>   -7.3455    1.0000 </r>
       <r>   -1.5165    0.0000 </r>
       <r>   -1.5141    0.0000 </r>
       <r>    0.5669    0.0000 </r>
       <r>    0.6459    0.0000 </r>
      </set>
      <set comment="kpoint 287">
       <r>   -8.2709    1.0000 </r>
       <r>   -7.3454    1.0000 </r>
       <r>   -1.5166    0.0000 </r>
       <r>   -1.5166    0.0000 </r>
       <r>    0.5679    0.0000 </r>
       <r>    0.7344    0.0000 </r>
      </set>
      <set comment="kpoint 288">
       <r>   -8.2709    1.0000 </r>
       <r>   -7.3455    1.0000 </r>
       <r>   -1.5162    0.0000 </r>
       <r>   -1.5161    0.0000 </r>
       <r>    0.6075    0.0000 </r>
       <r>    0.6991    0.0000 </r>
      </set>
     </set>
    </set>
   </array>
  </eigenvalues>
  <separator name="orbital magnetization" >
   <v name="MAGDIPOLOUT">      0.00000000      0.00000000      0.00000000</v>
  </separator>
  <dos>
   <i name="efermi">     -6.40741906 </i>
   <total>
    <array>
     <dimension dim="1">gridpoints</dimension>
     <dimension dim="2">spin</dimension>
     <field>energy</field>
     <field>total</field>
     <field>integrated</field>
     <set>
      <set comment="spin 1">
       <r>   -10.2711     0.0000     0.0000 </r>
       <r>   -10.2277     0.0000     0.0000 </r>
       <r>   -10.1843     0.0000     0.0000 </r>
       <r>   -10.1409     0.0000     0.0000 </r>
       <r>   -10.0975     0.0000     0.0000 </r>
       <r>   -10.0541     0.0000     0.0000 </r>
       <r>   -10.0107     0.0000     0.0000 </r>
       <r>    -9.9673     0.0000     0.0000 </r>
       <r>    -9.9238     0.0000     0.0000 </r>
       <r>    -9.8804     0.0000     0.0000 </r>
       <r>    -9.8370     0.0000     0.0000 </r>
       <r>    -9.7936     0.0000     0.0000 </r>
       <r>    -9.7502     0.0000     0.0000 </r>
       <r>    -9.7068     0.0000     0.0000 </r>
       <r>    -9.6634     0.0000     0.0000 </r>
       <r>    -9.6200     0.0000     0.0000 </r>
       <r>    -9.5765     0.0000     0.0000 </r>
       <r>    -9.5331     0.0000     0.0000 </r>
       <r>    -9.4897     0.0000     0.0000 </r>
       <r>    -9.4463     0.0000     0.0000 </r>
       <r>    -9.4029     0.0000     0.0000 </r>
       <r>    -9.3595     0.0000     0.0000 </r>
       <r>    -9.3161     0.0000     0.0000 </r>
       <r>    -9.2727     0.0000     0.0000 </r>
       <r>    -9.2292     0.0000     0.0000 </r>
       <r>    -9.1858     0.0000     0.0000 </r>
       <r>    -9.1424     0.0000     0.0000 </r>
       <r>    -9.0990     0.0000     0.0000 </r>
       <r>    -9.0556     0.0000     0.0000 </r>
       <r>    -9.0122     0.0000     0.0000 </r>
       <r>    -8.9688     0.0000     0.0000 </r>
       <r>    -8.9254     0.0001     0.0000 </r>
       <r>    -8.8819     0.0003     0.0000 </r>
       <r>    -8.8385     0.0010     0.0001 </r>
       <r>    -8.7951     0.0035     0.0002 </r>
       <r>    -8.7517     0.0107     0.0007 </r>
       <r>    -8.7083     0.0302     0.0020 </r>
       <r>    -8.6649     0.0775     0.0054 </r>
       <r>    -8.6215     0.1810     0.0132 </r>
       <r>    -8.5781     0.3850     0.0299 </r>
       <r>    -8.5346     0.7459     0.0623 </r>
       <r>    -8.4912     1.3161     0.1194 </r>
       <r>    -8.4478     2.1147     0.2112 </r>
       <r>    -8.4044     3.0947     0.3456 </r>
       <r>    -8.3610     4.1245     0.5247 </r>
       <r>    -8.3176     5.0064     0.7420 </r>
       <r>    -8.2742     5.5344     0.9823 </r>
       <r>    -8.2308     5.5720     1.2242 </r>
       <r>    -8.1873     5.1092     1.4460 </r>
       <r>    -8.1439     4.2666     1.6312 </r>
       <r>    -8.1005     3.2450     1.7720 </r>
       <r>    -8.0571     2.2477     1.8696 </r>
       <r>    -8.0137     1.4179     1.9312 </r>
       <r>    -7.9703     0.8148     1.9666 </r>
       <r>    -7.9269     0.4269     1.9851 </r>
       <r>    -7.8835     0.2055     1.9940 </r>
       <r>    -7.8400     0.0957     1.9982 </r>
       <r>    -7.7966     0.0567     2.0006 </r>
       <r>    -7.7532     0.0703     2.0037 </r>
       <r>    -7.7098     0.1431     2.0099 </r>
       <r>    -7.6664     0.3059     2.0232 </r>
       <r>    -7.6230     0.6088     2.0496 </r>
       <r>    -7.5796     1.1066     2.0976 </r>
       <r>    -7.5361     1.8325     2.1772 </r>
       <r>    -7.4927     2.7641     2.2972 </r>
       <r>    -7.4493     3.7971     2.4620 </r>
       <r>    -7.4059     4.7505     2.6683 </r>
       <r>    -7.3625     5.4128     2.9032 </r>
       <r>    -7.3191     5.6170     3.1471 </r>
       <r>    -7.2757     5.3086     3.3775 </r>
       <r>    -7.2323     4.5693     3.5759 </r>
       <r>    -7.1888     3.5819     3.7314 </r>
       <r>    -7.1454     2.5573     3.8424 </r>
       <r>    -7.1020     1.6628     3.9146 </r>
       <r>    -7.0586     0.9846     3.9574 </r>
       <r>    -7.0152     0.5310     3.9804 </r>
       <r>    -6.9718     0.2608     3.9917 </r>
       <r>    -6.9284     0.1167     3.9968 </r>
       <r>    -6.8850     0.0475     3.9989 </r>
       <r>    -6.8415     0.0176     3.9996 </r>
       <r>    -6.7981     0.0060     3.9999 </r>
       <r>    -6.7547     0.0018     4.0000 </r>
       <r>    -6.7113     0.0005     4.0000 </r>
       <r>    -6.6679     0.0001     4.0000 </r>
       <r>    -6.6245     0.0000     4.0000 </r>
       <r>    -6.5811     0.0000     4.0000 </r>
       <r>    -6.5377     0.0000     4.0000 </r>
       <r>    -6.4942     0.0000     4.0000 </r>
       <r>    -6.4508     0.0000     4.0000 </r>
       <r>    -6.4074     0.0000     4.0000 </r>
       <r>    -6.3640     0.0000     4.0000 </r>
       <r>    -6.3206     0.0000     4.0000 </r>
       <r>    -6.2772     0.0000     4.0000 </r>
       <r>    -6.2338     0.0000     4.0000 </r>
       <r>    -6.1904     0.0000     4.0000 </r>
       <r>    -6.1469     0.0000     4.0000 </r>
       <r>    -6.1035     0.0000     4.0000 </r>
       <r>    -6.0601     0.0000     4.0000 </r>
       <r>    -6.0167     0.0000     4.0000 </r>
       <r>    -5.9733     0.0000     4.0000 </r>
       <r>    -5.9299     0.0000     4.0000 </r>
       <r>    -5.8865     0.0000     4.0000 </r>
       <r>    -5.8431     0.0000     4.0000 </r>
       <r>    -5.7996     0.0000     4.0000 </r>
       <r>    -5.7562     0.0000     4.0000 </r>
       <r>    -5.7128     0.0000     4.0000 </r>
       <r>    -5.6694     0.0000     4.0000 </r>
       <r>    -5.6260     0.0000     4.0000 </r>
       <r>    -5.5826     0.0000     4.0000 </r>
       <r>    -5.5392     0.0000     4.0000 </r>
       <r>    -5.4958     0.0000     4.0000 </r>
       <r>    -5.4523     0.0000     4.0000 </r>
       <r>    -5.4089     0.0000     4.0000 </r>
       <r>    -5.3655     0.0000     4.0000 </r>
       <r>    -5.3221     0.0000     4.0000 </r>
       <r>    -5.2787     0.0000     4.0000 </r>
       <r>    -5.2353     0.0000     4.0000 </r>
       <r>    -5.1919     0.0000     4.0000 </r>
       <r>    -5.1485     0.0000     4.0000 </r>
       <r>    -5.1050     0.0000     4.0000 </r>
       <r>    -5.0616     0.0000     4.0000 </r>
       <r>    -5.0182     0.0000     4.0000 </r>
       <r>    -4.9748     0.0000     4.0000 </r>
       <r>    -4.9314     0.0000     4.0000 </r>
       <r>    -4.8880     0.0000     4.0000 </r>
       <r>    -4.8446     0.0000     4.0000 </r>
       <r>    -4.8012     0.0000     4.0000 </r>
       <r>    -4.7577     0.0000     4.0000 </r>
       <r>    -4.7143     0.0000     4.0000 </r>
       <r>    -4.6709     0.0000     4.0000 </r>
       <r>    -4.6275     0.0000     4.0000 </r>
       <r>    -4.5841     0.0000     4.0000 </r>
       <r>    -4.5407     0.0000     4.0000 </r>
       <r>    -4.4973     0.0000     4.0000 </r>
       <r>    -4.4539     0.0000     4.0000 </r>
       <r>    -4.4104     0.0000     4.0000 </r>
       <r>    -4.3670     0.0000     4.0000 </r>
       <r>    -4.3236     0.0000     4.0000 </r>
       <r>    -4.2802     0.0000     4.0000 </r>
       <r>    -4.2368     0.0000     4.0000 </r>
       <r>    -4.1934     0.0000     4.0000 </r>
       <r>    -4.1500     0.0000     4.0000 </r>
       <r>    -4.1066     0.0000     4.0000 </r>
       <r>    -4.0631     0.0000     4.0000 </r>
       <r>    -4.0197     0.0000     4.0000 </r>
       <r>    -3.9763     0.0000     4.0000 </r>
       <r>    -3.9329     0.0000     4.0000 </r>
       <r>    -3.8895     0.0000     4.0000 </r>
       <r>    -3.8461     0.0000     4.0000 </r>
       <r>    -3.8027     0.0000     4.0000 </r>
       <r>    -3.7592     0.0000     4.0000 </r>
       <r>    -3.7158     0.0000     4.0000 </r>
       <r>    -3.6724     0.0000     4.0000 </r>
       <r>    -3.6290     0.0000     4.0000 </r>
       <r>    -3.5856     0.0000     4.0000 </r>
       <r>    -3.5422     0.0000     4.0000 </r>
       <r>    -3.4988     0.0000     4.0000 </r>
       <r>    -3.4554     0.0000     4.0000 </r>
       <r>    -3.4119     0.0000     4.0000 </r>
       <r>    -3.3685     0.0000     4.0000 </r>
       <r>    -3.3251     0.0000     4.0000 </r>
       <r>    -3.2817     0.0000     4.0000 </r>
       <r>    -3.2383     0.0000     4.0000 </r>
       <r>    -3.1949     0.0000     4.0000 </r>
       <r>    -3.1515     0.0000     4.0000 </r>
       <r>    -3.1081     0.0000     4.0000 </r>
       <r>    -3.0646     0.0000     4.0000 </r>
       <r>    -3.0212     0.0000     4.0000 </r>
       <r>    -2.9778     0.0000     4.0000 </r>
       <r>    -2.9344     0.0000     4.0000 </r>
       <r>    -2.8910     0.0000     4.0000 </r>
       <r>    -2.8476     0.0000     4.0000 </r>
       <r>    -2.8042     0.0000     4.0000 </r>
       <r>    -2.7608     0.0000     4.0000 </r>
       <r>    -2.7173     0.0000     4.0000 </r>
       <r>    -2.6739     0.0000     4.0000 </r>
       <r>    -2.6305     0.0000     4.0000 </r>
       <r>    -2.5871     0.0000     4.0000 </r>
       <r>    -2.5437     0.0000     4.0000 </r>
       <r>    -2.5003     0.0000     4.0000 </r>
       <r>    -2.4569     0.0000     4.0000 </r>
       <r>    -2.4135     0.0000     4.0000 </r>
       <r>    -2.3700     0.0000     4.0000 </r>
       <r>    -2.3266     0.0000     4.0000 </r>
       <r>    -2.2832     0.0000     4.0000 </r>
       <r>    -2.2398     0.0000     4.0000 </r>
       <r>    -2.1964     0.0000     4.0000 </r>
       <r>    -2.1530     0.0002     4.0000 </r>
       <r>    -2.1096     0.0008     4.0000 </r>
       <r>    -2.0662     0.0027     4.0002 </r>
       <r>    -2.0227     0.0091     4.0006 </r>
       <r>    -1.9793     0.0274     4.0017 </r>
       <r>    -1.9359     0.0754     4.0050 </r>
       <r>    -1.8925     0.1889     4.0132 </r>
       <r>    -1.8491     0.4311     4.0319 </r>
       <r>    -1.8057     0.8965     4.0709 </r>
       <r>    -1.7623     1.6987     4.1446 </r>
       <r>    -1.7189     2.9328     4.2719 </r>
       <r>    -1.6754     4.6134     4.4722 </r>
       <r>    -1.6320     6.6124     4.7593 </r>
       <r>    -1.5886     8.6356     5.1342 </r>
       <r>    -1.5452    10.2758     5.5803 </r>
       <r>    -1.5018    11.1412     6.0639 </r>
       <r>    -1.4584    11.0064     6.5417 </r>
       <r>    -1.4150     9.9072     6.9718 </r>
       <r>    -1.3716     8.1256     7.3246 </r>
       <r>    -1.3281     6.0722     7.5882 </r>
       <r>    -1.2847     4.1346     7.7677 </r>
       <r>    -1.2413     2.5652     7.8791 </r>
       <r>    -1.1979     1.4500     7.9420 </r>
       <r>    -1.1545     0.7468     7.9744 </r>
       <r>    -1.1111     0.3505     7.9897 </r>
       <r>    -1.0677     0.1499     7.9962 </r>
       <r>    -1.0243     0.0584     7.9987 </r>
       <r>    -0.9808     0.0207     7.9996 </r>
       <r>    -0.9374     0.0067     7.9999 </r>
       <r>    -0.8940     0.0020     8.0000 </r>
       <r>    -0.8506     0.0005     8.0000 </r>
       <r>    -0.8072     0.0001     8.0000 </r>
       <r>    -0.7638     0.0000     8.0000 </r>
       <r>    -0.7204     0.0001     8.0000 </r>
       <r>    -0.6770     0.0003     8.0000 </r>
       <r>    -0.6335     0.0008     8.0001 </r>
       <r>    -0.5901     0.0024     8.0002 </r>
       <r>    -0.5467     0.0063     8.0004 </r>
       <r>    -0.5033     0.0153     8.0011 </r>
       <r>    -0.4599     0.0342     8.0026 </r>
       <r>    -0.4165     0.0710     8.0057 </r>
       <r>    -0.3731     0.1366     8.0116 </r>
       <r>    -0.3297     0.2444     8.0222 </r>
       <r>    -0.2862     0.4080     8.0399 </r>
       <r>    -0.2428     0.6379     8.0676 </r>
       <r>    -0.1994     0.9381     8.1083 </r>
       <r>    -0.1560     1.3036     8.1649 </r>
       <r>    -0.1126     1.7202     8.2396 </r>
       <r>    -0.0692     2.1660     8.3336 </r>
       <r>    -0.0258     2.6148     8.4471 </r>
       <r>     0.0177     3.0404     8.5791 </r>
       <r>     0.0611     3.4202     8.7276 </r>
       <r>     0.1045     3.7393     8.8900 </r>
       <r>     0.1479     3.9931     9.0633 </r>
       <r>     0.1913     4.1891     9.2452 </r>
       <r>     0.2347     4.3450     9.4338 </r>
       <r>     0.2781     4.4850     9.6285 </r>
       <r>     0.3215     4.6321     9.8296 </r>
       <r>     0.3650     4.7992    10.0379 </r>
       <r>     0.4084     4.9807    10.2542 </r>
       <r>     0.4518     5.1477    10.4776 </r>
       <r>     0.4952     5.2508    10.7056 </r>
       <r>     0.5386     5.2307    10.9327 </r>
       <r>     0.5820     5.0362    11.1513 </r>
       <r>     0.6254     4.6427    11.3528 </r>
       <r>     0.6688     4.0654    11.5293 </r>
       <r>     0.7123     3.3589    11.6752 </r>
       <r>     0.7557     2.6044    11.7882 </r>
       <r>     0.7991     1.8866    11.8701 </r>
       <r>     0.8425     1.2723    11.9254 </r>
       <r>     0.8859     0.7963    11.9599 </r>
       <r>     0.9293     0.4614    11.9800 </r>
       <r>     0.9727     0.2471    11.9907 </r>
       <r>     1.0161     0.1221    11.9960 </r>
       <r>     1.0596     0.0556    11.9984 </r>
       <r>     1.1030     0.0233    11.9994 </r>
       <r>     1.1464     0.0090    11.9998 </r>
       <r>     1.1898     0.0032    11.9999 </r>
       <r>     1.2332     0.0010    12.0000 </r>
       <r>     1.2766     0.0003    12.0000 </r>
       <r>     1.3200     0.0001    12.0000 </r>
       <r>     1.3634     0.0000    12.0000 </r>
       <r>     1.4069     0.0000    12.0000 </r>
       <r>     1.4503     0.0000    12.0000 </r>
       <r>     1.4937     0.0000    12.0000 </r>
       <r>     1.5371     0.0000    12.0000 </r>
       <r>     1.5805     0.0000    12.0000 </r>
       <r>     1.6239     0.0000    12.0000 </r>
       <r>     1.6673     0.0000    12.0000 </r>
       <r>     1.7107     0.0000    12.0000 </r>
       <r>     1.7542     0.0000    12.0000 </r>
       <r>     1.7976     0.0000    12.0000 </r>
       <r>     1.8410     0.0000    12.0000 </r>
       <r>     1.8844     0.0000    12.0000 </r>
       <r>     1.9278     0.0000    12.0000 </r>
       <r>     1.9712     0.0000    12.0000 </r>
       <r>     2.0146     0.0000    12.0000 </r>
       <r>     2.0580     0.0000    12.0000 </r>
       <r>     2.1015     0.0000    12.0000 </r>
       <r>     2.1449     0.0000    12.0000 </r>
       <r>     2.1883     0.0000    12.0000 </r>
       <r>     2.2317     0.0000    12.0000 </r>
       <r>     2.2751     0.0000    12.0000 </r>
       <r>     2.3185     0.0000    12.0000 </r>
       <r>     2.3619     0.0000    12.0000 </r>
       <r>     2.4053     0.0000    12.0000 </r>
       <r>     2.4488     0.0000    12.0000 </r>
       <r>     2.4922     0.0000    12.0000 </r>
       <r>     2.5356     0.0000    12.0000 </r>
       <r>     2.5790     0.0000    12.0000 </r>
       <r>     2.6224     0.0000    12.0000 </r>
       <r>     2.6658     0.0000    12.0000 </r>
       <r>     2.7092     0.0000    12.0000 </r>
       <r>     2.7526     0.0000    12.0000 </r>
      </set>
     </set>
    </array>
   </total>
  </dos>
 </calculation>
 <structure name="finalpos" >
  <crystal>
   <varray name="basis" >
    <v>      10.32500005       0.00000000       0.00000000 </v>
    <v>       0.00000000      10.32500005       0.00000000 </v>
    <v>       0.00000000       0.00000000      10.32500005 </v>
   </varray>
   <i name="volume">   1100.70309338 </i>
   <varray name="rec_basis" >
    <v>       0.09685230       0.00000000       0.00000000 </v>
    <v>       0.00000000       0.09685230       0.00000000 </v>
    <v>       0.00000000       0.00000000       0.09685230 </v>
   </varray>
  </crystal>
  <varray name="positions" >
   <v>       0.62972090       0.50000000       0.50000000 </v>
   <v>       0.37027909       0.50000000       0.50000000 </v>
   <v>       0.50000000       0.50000000       0.50000000 </v>
  </varray>
 </structure>
</modeling>
