   1   1   0   0
  0.1000000E+04  0.1000000E-08  0.1000000E-08  0.1000000E-08  0.5000000E-15
   1.0000000000000000E-004
  CAR 
 unknown system                          
      2.75356176     -7.48165333  301     -4.54755821      1.00000000
     -7.482  0.0000E+00  0.0000E+00
     -7.448  0.0000E+00  0.0000E+00
     -7.413  0.0000E+00  0.0000E+00
     -7.379  0.0000E+00  0.0000E+00
     -7.345  0.0000E+00  0.0000E+00
     -7.311  0.0000E+00  0.0000E+00
     -7.277  0.0000E+00  0.0000E+00
     -7.243  0.0000E+00  0.0000E+00
     -7.209  0.0000E+00  0.0000E+00
     -7.175  0.0000E+00  0.0000E+00
     -7.140  0.0000E+00  0.0000E+00
     -7.106  0.0000E+00  0.0000E+00
     -7.072  0.0000E+00  0.0000E+00
     -7.038  0.0000E+00  0.0000E+00
     -7.004  0.0000E+00  0.0000E+00
     -6.970  0.0000E+00  0.0000E+00
     -6.936  0.0000E+00  0.0000E+00
     -6.902  0.0000E+00  0.0000E+00
     -6.868  0.0000E+00  0.0000E+00
     -6.833  0.0000E+00  0.0000E+00
     -6.799  0.0000E+00  0.0000E+00
     -6.765  0.0000E+00  0.0000E+00
     -6.731  0.0000E+00  0.0000E+00
     -6.697  0.0000E+00  0.0000E+00
     -6.663  0.3254E-16  0.1110E-17
     -6.629  0.9788E-16  0.4450E-17
     -6.595  0.8553E-15  0.3363E-16
     -6.560  0.5611E-14  0.2251E-15
     -6.526  0.3511E-13  0.1423E-14
     -6.492  0.2073E-12  0.8494E-14
     -6.458  0.1155E-11  0.4789E-13
     -6.424  0.6071E-11  0.2550E-12
     -6.390  0.3012E-10  0.1283E-11
     -6.356  0.1410E-09  0.6095E-11
     -6.322  0.6232E-09  0.2736E-10
     -6.288  0.2599E-08  0.1160E-09
     -6.253  0.1023E-07  0.4649E-09
     -6.219  0.3798E-07  0.1761E-08
     -6.185  0.1331E-06  0.6302E-08
     -6.151  0.4402E-06  0.2132E-07
     -6.117  0.1374E-05  0.6820E-07
     -6.083  0.4047E-05  0.2063E-06
     -6.049  0.1125E-04  0.5901E-06
     -6.015  0.2951E-04  0.1597E-05
     -5.980  0.7305E-04  0.4089E-05
     -5.946  0.1707E-03  0.9912E-05
     -5.912  0.3763E-03  0.2275E-04
     -5.878  0.7829E-03  0.4946E-04
     -5.844  0.1537E-02  0.1019E-03
     -5.810  0.2849E-02  0.1991E-03
     -5.776  0.4982E-02  0.3691E-03
     -5.742  0.8222E-02  0.6496E-03
     -5.708  0.1281E-01  0.1086E-02
     -5.673  0.1882E-01  0.1729E-02
     -5.639  0.2611E-01  0.2619E-02
     -5.605  0.3418E-01  0.3786E-02
     -5.571  0.4223E-01  0.5226E-02
     -5.537  0.4923E-01  0.6906E-02
     -5.503  0.5417E-01  0.8754E-02
     -5.469  0.5625E-01  0.1067E-01
     -5.435  0.5512E-01  0.1255E-01
     -5.400  0.5097E-01  0.1429E-01
     -5.366  0.4449E-01  0.1581E-01
     -5.332  0.3664E-01  0.1706E-01
     -5.298  0.2848E-01  0.1803E-01
     -5.264  0.2089E-01  0.1874E-01
     -5.230  0.1446E-01  0.1924E-01
     -5.196  0.9449E-02  0.1956E-01
     -5.162  0.5826E-02  0.1976E-01
     -5.128  0.3390E-02  0.1987E-01
     -5.093  0.1861E-02  0.1994E-01
     -5.059  0.9645E-03  0.1997E-01
     -5.025  0.4717E-03  0.1999E-01
     -4.991  0.2177E-03  0.1999E-01
     -4.957  0.9482E-04  0.2000E-01
     -4.923  0.3897E-04  0.2000E-01
     -4.889  0.1512E-04  0.2000E-01
     -4.855  0.5534E-05  0.2000E-01
     -4.820  0.1912E-05  0.2000E-01
     -4.786  0.6232E-06  0.2000E-01
     -4.752  0.1918E-06  0.2000E-01
     -4.718  0.5567E-07  0.2000E-01
     -4.684  0.1525E-07  0.2000E-01
     -4.650  0.3944E-08  0.2000E-01
     -4.616  0.9625E-09  0.2000E-01
     -4.582  0.2217E-09  0.2000E-01
     -4.548  0.4817E-10  0.2000E-01
     -4.513  0.9879E-11  0.2000E-01
     -4.479  0.1912E-11  0.2000E-01
     -4.445  0.3492E-12  0.2000E-01
     -4.411  0.6018E-13  0.2000E-01
     -4.377  0.9788E-14  0.2000E-01
     -4.343  0.1493E-14  0.2000E-01
     -4.309  0.2603E-15  0.2000E-01
     -4.275  0.0000E+00  0.2000E-01
     -4.241  0.0000E+00  0.2000E-01
     -4.206  0.0000E+00  0.2000E-01
     -4.172  0.0000E+00  0.2000E-01
     -4.138  0.0000E+00  0.2000E-01
     -4.104  0.0000E+00  0.2000E-01
     -4.070  0.0000E+00  0.2000E-01
     -4.036  0.0000E+00  0.2000E-01
     -4.002  0.0000E+00  0.2000E-01
     -3.968  0.0000E+00  0.2000E-01
     -3.933  0.0000E+00  0.2000E-01
     -3.899  0.0000E+00  0.2000E-01
     -3.865  0.0000E+00  0.2000E-01
     -3.831  0.0000E+00  0.2000E-01
     -3.797  0.0000E+00  0.2000E-01
     -3.763  0.0000E+00  0.2000E-01
     -3.729  0.0000E+00  0.2000E-01
     -3.695  0.0000E+00  0.2000E-01
     -3.661  0.0000E+00  0.2000E-01
     -3.626  0.0000E+00  0.2000E-01
     -3.592  0.0000E+00  0.2000E-01
     -3.558  0.0000E+00  0.2000E-01
     -3.524  0.0000E+00  0.2000E-01
     -3.490  0.0000E+00  0.2000E-01
     -3.456  0.0000E+00  0.2000E-01
     -3.422  0.0000E+00  0.2000E-01
     -3.388  0.0000E+00  0.2000E-01
     -3.353  0.0000E+00  0.2000E-01
     -3.319  0.0000E+00  0.2000E-01
     -3.285  0.0000E+00  0.2000E-01
     -3.251  0.0000E+00  0.2000E-01
     -3.217  0.0000E+00  0.2000E-01
     -3.183  0.0000E+00  0.2000E-01
     -3.149  0.0000E+00  0.2000E-01
     -3.115  0.0000E+00  0.2000E-01
     -3.081  0.3257E-16  0.2000E-01
     -3.046  0.2534E-15  0.2000E-01
     -3.012  0.1783E-14  0.2000E-01
     -2.978  0.1187E-13  0.2000E-01
     -2.944  0.7473E-13  0.2000E-01
     -2.910  0.4443E-12  0.2000E-01
     -2.876  0.2493E-11  0.2000E-01
     -2.842  0.1321E-10  0.2000E-01
     -2.808  0.6605E-10  0.2000E-01
     -2.773  0.3117E-09  0.2000E-01
     -2.739  0.1389E-08  0.2000E-01
     -2.705  0.5841E-08  0.2000E-01
     -2.671  0.2319E-07  0.2000E-01
     -2.637  0.8688E-07  0.2000E-01
     -2.603  0.3073E-06  0.2000E-01
     -2.569  0.1026E-05  0.2000E-01
     -2.535  0.3234E-05  0.2000E-01
     -2.501  0.9620E-05  0.2000E-01
     -2.466  0.2702E-04  0.2000E-01
     -2.432  0.7162E-04  0.2000E-01
     -2.398  0.1792E-03  0.2001E-01
     -2.364  0.4234E-03  0.2002E-01
     -2.330  0.9441E-03  0.2006E-01
     -2.296  0.1987E-02  0.2012E-01
     -2.262  0.3949E-02  0.2026E-01
     -2.228  0.7407E-02  0.2051E-01
     -2.193  0.1311E-01  0.2096E-01
     -2.159  0.2192E-01  0.2171E-01
     -2.125  0.3459E-01  0.2289E-01
     -2.091  0.5151E-01  0.2464E-01
     -2.057  0.7243E-01  0.2712E-01
     -2.023  0.9613E-01  0.3040E-01
     -1.989  0.1204E+00  0.3450E-01
     -1.955  0.1424E+00  0.3936E-01
     -1.921  0.1590E+00  0.4479E-01
     -1.886  0.1676E+00  0.5051E-01
     -1.852  0.1668E+00  0.5620E-01
     -1.818  0.1566E+00  0.6154E-01
     -1.784  0.1389E+00  0.6628E-01
     -1.750  0.1162E+00  0.7025E-01
     -1.716  0.9182E-01  0.7338E-01
     -1.682  0.6848E-01  0.7571E-01
     -1.648  0.4821E-01  0.7736E-01
     -1.613  0.3204E-01  0.7845E-01
     -1.579  0.2010E-01  0.7914E-01
     -1.545  0.1190E-01  0.7954E-01
     -1.511  0.6655E-02  0.7977E-01
     -1.477  0.3512E-02  0.7989E-01
     -1.443  0.1749E-02  0.7995E-01
     -1.409  0.8227E-03  0.7998E-01
     -1.375  0.3652E-03  0.7999E-01
     -1.341  0.1530E-03  0.8000E-01
     -1.306  0.6053E-04  0.8000E-01
     -1.272  0.2260E-04  0.8000E-01
     -1.238  0.7966E-05  0.8000E-01
     -1.204  0.2650E-05  0.8000E-01
     -1.170  0.8323E-06  0.8000E-01
     -1.136  0.2467E-06  0.8000E-01
     -1.102  0.6905E-07  0.8000E-01
     -1.068  0.1825E-07  0.8000E-01
     -1.033  0.4585E-08  0.8000E-01
     -0.999  0.1223E-08  0.8000E-01
     -0.965  0.8297E-09  0.8000E-01
     -0.931  0.2217E-08  0.8000E-01
     -0.897  0.7519E-08  0.8000E-01
     -0.863  0.2463E-07  0.8000E-01
     -0.829  0.7649E-07  0.8000E-01
     -0.795  0.2250E-06  0.8000E-01
     -0.761  0.6268E-06  0.8000E-01
     -0.726  0.1655E-05  0.8000E-01
     -0.692  0.4145E-05  0.8000E-01
     -0.658  0.9844E-05  0.8000E-01
     -0.624  0.2219E-04  0.8000E-01
     -0.590  0.4750E-04  0.8000E-01
     -0.556  0.9664E-04  0.8001E-01
     -0.522  0.1870E-03  0.8001E-01
     -0.488  0.3444E-03  0.8002E-01
     -0.453  0.6046E-03  0.8005E-01
     -0.419  0.1013E-02  0.8008E-01
     -0.385  0.1621E-02  0.8013E-01
     -0.351  0.2482E-02  0.8022E-01
     -0.317  0.3644E-02  0.8034E-01
     -0.283  0.5139E-02  0.8052E-01
     -0.249  0.6978E-02  0.8076E-01
     -0.215  0.9144E-02  0.8107E-01
     -0.181  0.1159E-01  0.8146E-01
     -0.146  0.1425E-01  0.8195E-01
     -0.112  0.1704E-01  0.8253E-01
     -0.078  0.1985E-01  0.8321E-01
     -0.044  0.2258E-01  0.8398E-01
     -0.010  0.2512E-01  0.8484E-01
      0.024  0.2736E-01  0.8577E-01
      0.058  0.2922E-01  0.8677E-01
      0.092  0.3060E-01  0.8781E-01
      0.127  0.3145E-01  0.8888E-01
      0.161  0.3173E-01  0.8997E-01
      0.195  0.3144E-01  0.9104E-01
      0.229  0.3062E-01  0.9208E-01
      0.263  0.2933E-01  0.9308E-01
      0.297  0.2765E-01  0.9403E-01
      0.331  0.2567E-01  0.9490E-01
      0.365  0.2348E-01  0.9570E-01
      0.399  0.2115E-01  0.9643E-01
      0.434  0.1878E-01  0.9707E-01
      0.468  0.1641E-01  0.9763E-01
      0.502  0.1412E-01  0.9811E-01
      0.536  0.1195E-01  0.9852E-01
      0.570  0.9944E-02  0.9886E-01
      0.604  0.8127E-02  0.9913E-01
      0.638  0.6520E-02  0.9936E-01
      0.672  0.5129E-02  0.9953E-01
      0.707  0.3952E-02  0.9967E-01
      0.741  0.2980E-02  0.9977E-01
      0.775  0.2194E-02  0.9984E-01
      0.809  0.1574E-02  0.9990E-01
      0.843  0.1099E-02  0.9993E-01
      0.877  0.7445E-03  0.9996E-01
      0.911  0.4881E-03  0.9997E-01
      0.945  0.3091E-03  0.9999E-01
      0.979  0.1885E-03  0.9999E-01
      1.014  0.1105E-03  0.1000E+00
      1.048  0.6218E-04  0.1000E+00
      1.082  0.3349E-04  0.1000E+00
      1.116  0.1725E-04  0.1000E+00
      1.150  0.8477E-05  0.1000E+00
      1.184  0.3972E-05  0.1000E+00
      1.218  0.1772E-05  0.1000E+00
      1.252  0.7523E-06  0.1000E+00
      1.287  0.3035E-06  0.1000E+00
      1.321  0.1163E-06  0.1000E+00
      1.355  0.4229E-07  0.1000E+00
      1.389  0.1458E-07  0.1000E+00
      1.423  0.4768E-08  0.1000E+00
      1.457  0.1477E-08  0.1000E+00
      1.491  0.4334E-09  0.1000E+00
      1.525  0.1204E-09  0.1000E+00
      1.559  0.3165E-10  0.1000E+00
      1.594  0.7873E-11  0.1000E+00
      1.628  0.1853E-11  0.1000E+00
      1.662  0.4122E-12  0.1000E+00
      1.696  0.8672E-13  0.1000E+00
      1.730  0.1725E-13  0.1000E+00
      1.764  0.3241E-14  0.1000E+00
      1.798  0.5759E-15  0.1000E+00
      1.832  0.9642E-16  0.1000E+00
      1.867  0.1543E-16  0.1000E+00
      1.901  0.2160E-17  0.1000E+00
      1.935  0.3085E-18  0.1000E+00
      1.969  0.0000E+00  0.1000E+00
      2.003  0.0000E+00  0.1000E+00
      2.037  0.0000E+00  0.1000E+00
      2.071  0.0000E+00  0.1000E+00
      2.105  0.0000E+00  0.1000E+00
      2.139  0.0000E+00  0.1000E+00
      2.174  0.0000E+00  0.1000E+00
      2.208  0.0000E+00  0.1000E+00
      2.242  0.0000E+00  0.1000E+00
      2.276  0.0000E+00  0.1000E+00
      2.310  0.0000E+00  0.1000E+00
      2.344  0.0000E+00  0.1000E+00
      2.378  0.0000E+00  0.1000E+00
      2.412  0.0000E+00  0.1000E+00
      2.447  0.0000E+00  0.1000E+00
      2.481  0.0000E+00  0.1000E+00
      2.515  0.0000E+00  0.1000E+00
      2.549  0.0000E+00  0.1000E+00
      2.583  0.0000E+00  0.1000E+00
      2.617  0.0000E+00  0.1000E+00
      2.651  0.0000E+00  0.1000E+00
      2.685  0.0000E+00  0.1000E+00
      2.719  0.0000E+00  0.1000E+00
      2.754  0.0000E+00  0.1000E+00
