    1    1  100    1
  0.1000000E+04  0.1000000E-08  0.1000000E-08  0.1000000E-08  0.5000000E-15
   1.0000000000000000E-004
  CAR 
 unknown system                          
      2    120      5

  0.1262379E-14  0.1262379E-14  0.1262379E-14  0.2962963E-03
    1       -5.481653   1.000000
    2       -1.878176   0.000000
    3       -1.878176   0.000000
    4       -1.878176   0.000000
    5       -0.239679   0.000000

  0.6666667E-01  0.1262379E-14  0.1262379E-14  0.1777778E-02
    1       -5.481625   1.000000
    2       -1.879480   0.000000
    3       -1.878065   0.000000
    4       -1.878065   0.000000
    5       -0.231533   0.000000

  0.1333333E+00  0.1262379E-14  0.1262379E-14  0.1777778E-02
    1       -5.481544   1.000000
    2       -1.883140   0.000000
    3       -1.877750   0.000000
    4       -1.877750   0.000000
    5       -0.207383   0.000000

  0.2000000E+00  0.1262379E-14  0.1262379E-14  0.1777778E-02
    1       -5.481423   1.000000
    2       -1.888478   0.000000
    3       -1.877286   0.000000
    4       -1.877286   0.000000
    5       -0.168065   0.000000

  0.2666667E+00  0.1262379E-14  0.1262379E-14  0.1777778E-02
    1       -5.481285   1.000000
    2       -1.894525   0.000000
    3       -1.876752   0.000000
    4       -1.876752   0.000000
    5       -0.114943   0.000000

  0.3333333E+00  0.1262379E-14  0.1262379E-14  0.1777778E-02
    1       -5.481155   1.000000
    2       -1.900229   0.000000
    3       -1.876242   0.000000
    4       -1.876242   0.000000
    5       -0.050131   0.000000

  0.4000000E+00  0.1262379E-14  0.1262379E-14  0.1777778E-02
    1       -5.481053   1.000000
    2       -1.904633   0.000000
    3       -1.875843   0.000000
    4       -1.875843   0.000000
    5        0.022051   0.000000

  0.4666667E+00  0.1262379E-14  0.1262379E-14  0.1777778E-02
    1       -5.480997   1.000000
    2       -1.907024   0.000000
    3       -1.875624   0.000000
    4       -1.875624   0.000000
    5        0.086024   0.000000

  0.6666667E-01  0.6666667E-01  0.1262379E-14  0.3555556E-02
    1       -5.481596   1.000000
    2       -1.879475   0.000000
    3       -1.879253   0.000000
    4       -1.877954   0.000000
    5       -0.223398   0.000000

  0.1333333E+00  0.6666667E-01  0.1262379E-14  0.7111111E-02
    1       -5.481515   1.000000
    2       -1.883024   0.000000
    3       -1.879028   0.000000
    4       -1.877640   0.000000
    5       -0.199277   0.000000

  0.2000000E+00  0.6666667E-01  0.1262379E-14  0.7111111E-02
    1       -5.481395   1.000000
    2       -1.888343   0.000000
    3       -1.878551   0.000000
    4       -1.877177   0.000000
    5       -0.159999   0.000000

  0.2666667E+00  0.6666667E-01  0.1262379E-14  0.7111111E-02
    1       -5.481257   1.000000
    2       -1.894372   0.000000
    3       -1.878002   0.000000
    4       -1.876645   0.000000
    5       -0.106912   0.000000

  0.3333333E+00  0.6666667E-01  0.1262379E-14  0.7111111E-02
    1       -5.481126   1.000000
    2       -1.900058   0.000000
    3       -1.877475   0.000000
    4       -1.876136   0.000000
    5       -0.042090   0.000000

  0.4000000E+00  0.6666667E-01  0.1262379E-14  0.7111111E-02
    1       -5.481024   1.000000
    2       -1.904448   0.000000
    3       -1.877063   0.000000
    4       -1.875737   0.000000
    5        0.030245   0.000000

  0.4666667E+00  0.6666667E-01  0.1262379E-14  0.7111111E-02
    1       -5.480969   1.000000
    2       -1.906833   0.000000
    3       -1.876838   0.000000
    4       -1.875520   0.000000
    5        0.094725   0.000000

  0.1333333E+00  0.1333333E+00  0.1262379E-14  0.3555556E-02
    1       -5.481434   1.000000
    2       -1.883025   0.000000
    3       -1.882291   0.000000
    4       -1.877329   0.000000
    5       -0.175238   0.000000

  0.2000000E+00  0.1333333E+00  0.1262379E-14  0.7111111E-02
    1       -5.481314   1.000000
    2       -1.887974   0.000000
    3       -1.882096   0.000000
    4       -1.876869   0.000000
    5       -0.136076   0.000000

  0.2666667E+00  0.1333333E+00  0.1262379E-14  0.7111111E-02
    1       -5.481177   1.000000
    2       -1.893938   0.000000
    3       -1.881511   0.000000
    4       -1.876342   0.000000
    5       -0.083092   0.000000

  0.3333333E+00  0.1333333E+00  0.1262379E-14  0.7111111E-02
    1       -5.481046   1.000000
    2       -1.899573   0.000000
    3       -1.880943   0.000000
    4       -1.875837   0.000000
    5       -0.018255   0.000000

  0.4000000E+00  0.1333333E+00  0.1262379E-14  0.7111111E-02
    1       -5.480944   1.000000
    2       -1.903927   0.000000
    3       -1.880498   0.000000
    4       -1.875442   0.000000
    5        0.054502   0.000000

  0.4666667E+00  0.1333333E+00  0.1262379E-14  0.7111111E-02
    1       -5.480888   1.000000
    2       -1.906291   0.000000
    3       -1.880252   0.000000
    4       -1.875225   0.000000
    5        0.120476   0.000000

  0.2000000E+00  0.2000000E+00  0.1262379E-14  0.3555556E-02
    1       -5.481196   1.000000
    2       -1.887940   0.000000
    3       -1.886757   0.000000
    4       -1.876416   0.000000
    5       -0.097082   0.000000

  0.2666667E+00  0.2000000E+00  0.1262379E-14  0.7111111E-02
    1       -5.481059   1.000000
    2       -1.893316   0.000000
    3       -1.886614   0.000000
    4       -1.875895   0.000000
    5       -0.044262   0.000000

  0.3333333E+00  0.2000000E+00  0.1262379E-14  0.7111111E-02
    1       -5.480929   1.000000
    2       -1.898861   0.000000
    3       -1.886001   0.000000
    4       -1.875395   0.000000
    5        0.020567   0.000000

  0.4000000E+00  0.2000000E+00  0.1262379E-14  0.7111111E-02
    1       -5.480827   1.000000
    2       -1.903157   0.000000
    3       -1.885508   0.000000
    4       -1.875005   0.000000
    5        0.093913   0.000000

  0.4666667E+00  0.2000000E+00  0.1262379E-14  0.7111111E-02
    1       -5.480771   1.000000
    2       -1.905492   0.000000
    3       -1.885237   0.000000
    4       -1.874791   0.000000
    5        0.162262   0.000000

  0.2666667E+00  0.2666667E+00  0.1262379E-14  0.3555556E-02
    1       -5.480924   1.000000
    2       -1.893136   0.000000
    3       -1.891866   0.000000
    4       -1.875380   0.000000
    5        0.008378   0.000000

  0.3333333E+00  0.2666667E+00  0.1262379E-14  0.7111111E-02
    1       -5.480794   1.000000
    2       -1.898054   0.000000
    3       -1.891727   0.000000
    4       -1.874888   0.000000
    5        0.073159   0.000000

  0.4000000E+00  0.2666667E+00  0.1262379E-14  0.7111111E-02
    1       -5.480692   1.000000
    2       -1.902272   0.000000
    3       -1.891194   0.000000
    4       -1.874502   0.000000
    5        0.147114   0.000000

  0.4666667E+00  0.2666667E+00  0.1262379E-14  0.7111111E-02
    1       -5.480637   1.000000
    2       -1.904572   0.000000
    3       -1.890894   0.000000
    4       -1.874292   0.000000
    5        0.218492   0.000000

  0.3333333E+00  0.3333333E+00  0.1262379E-14  0.3555556E-02
    1       -5.480665   1.000000
    2       -1.897681   0.000000
    3       -1.896733   0.000000
    4       -1.874402   0.000000
    5        0.137938   0.000000

  0.4000000E+00  0.3333333E+00  0.1262379E-14  0.7111111E-02
    1       -5.480563   1.000000
    2       -1.901428   0.000000
    3       -1.896561   0.000000
    4       -1.874022   0.000000
    5        0.212404   0.000000

  0.4666667E+00  0.3333333E+00  0.1262379E-14  0.7111111E-02
    1       -5.480507   1.000000
    2       -1.903691   0.000000
    3       -1.896238   0.000000
    4       -1.873814   0.000000
    5        0.287011   0.000000

  0.4000000E+00  0.4000000E+00  0.1262379E-14  0.3555556E-02
    1       -5.480462   1.000000
    2       -1.900955   0.000000
    3       -1.900524   0.000000
    4       -1.873646   0.000000
    5        0.287445   0.000000

  0.4666667E+00  0.4000000E+00  0.1262379E-14  0.7111111E-02
    1       -5.480406   1.000000
    2       -1.903001   0.000000
    3       -1.900372   0.000000
    4       -1.873440   0.000000
    5        0.364654   0.000000

  0.4666667E+00  0.4666667E+00  0.1262379E-14  0.3555556E-02
    1       -5.480351   1.000000
    2       -1.902648   0.000000
    3       -1.902595   0.000000
    4       -1.873235   0.000000
    5        0.442300   0.000000

  0.6666667E-01  0.6666667E-01  0.6666667E-01  0.2370370E-02
    1       -5.481567   1.000000
    2       -1.879469   0.000000
    3       -1.879139   0.000000
    4       -1.879139   0.000000
    5       -0.215273   0.000000

  0.1333333E+00  0.6666667E-01  0.6666667E-01  0.7111111E-02
    1       -5.481486   1.000000
    2       -1.882909   0.000000
    3       -1.879011   0.000000
    4       -1.878817   0.000000
    5       -0.191182   0.000000

  0.2000000E+00  0.6666667E-01  0.6666667E-01  0.7111111E-02
    1       -5.481367   1.000000
    2       -1.888209   0.000000
    3       -1.878536   0.000000
    4       -1.878342   0.000000
    5       -0.151945   0.000000

  0.2666667E+00  0.6666667E-01  0.6666667E-01  0.7111111E-02
    1       -5.481229   1.000000
    2       -1.894218   0.000000
    3       -1.877986   0.000000
    4       -1.877796   0.000000
    5       -0.098894   0.000000

  0.3333333E+00  0.6666667E-01  0.6666667E-01  0.7111111E-02
    1       -5.481098   1.000000
    2       -1.899887   0.000000
    3       -1.877458   0.000000
    4       -1.877274   0.000000
    5       -0.034065   0.000000

  0.4000000E+00  0.6666667E-01  0.6666667E-01  0.7111111E-02
    1       -5.480996   1.000000
    2       -1.904265   0.000000
    3       -1.877046   0.000000
    4       -1.876865   0.000000
    5        0.038419   0.000000

  0.4666667E+00  0.6666667E-01  0.6666667E-01  0.7111111E-02
    1       -5.480940   1.000000
    2       -1.906642   0.000000
    3       -1.876820   0.000000
    4       -1.876641   0.000000
    5        0.103411   0.000000

  0.1333333E+00  0.1333333E+00  0.6666667E-01  0.7111111E-02
    1       -5.481405   1.000000
    2       -1.882916   0.000000
    3       -1.882170   0.000000
    4       -1.878584   0.000000
    5       -0.167174   0.000000

  0.2000000E+00  0.1333333E+00  0.6666667E-01  0.1422222E-01
    1       -5.481286   1.000000
    2       -1.887842   0.000000
    3       -1.881982   0.000000
    4       -1.878113   0.000000
    5       -0.128055   0.000000

  0.2666667E+00  0.1333333E+00  0.6666667E-01  0.1422222E-01
    1       -5.481149   1.000000
    2       -1.893787   0.000000
    3       -1.881399   0.000000
    4       -1.877570   0.000000
    5       -0.075112   0.000000

  0.3333333E+00  0.1333333E+00  0.6666667E-01  0.1422222E-01
    1       -5.481018   1.000000
    2       -1.899405   0.000000
    3       -1.880832   0.000000
    4       -1.877050   0.000000
    5       -0.010275   0.000000

  0.4000000E+00  0.1333333E+00  0.6666667E-01  0.1422222E-01
    1       -5.480916   1.000000
    2       -1.903746   0.000000
    3       -1.880388   0.000000
    4       -1.876643   0.000000
    5        0.062622   0.000000

  0.4666667E+00  0.1333333E+00  0.6666667E-01  0.1422222E-01
    1       -5.480860   1.000000
    2       -1.906103   0.000000
    3       -1.880144   0.000000
    4       -1.876420   0.000000
    5        0.129116   0.000000

  0.2000000E+00  0.2000000E+00  0.6666667E-01  0.7111111E-02
    1       -5.481167   1.000000
    2       -1.887809   0.000000
    3       -1.886624   0.000000
    4       -1.877647   0.000000
    5       -0.089109   0.000000

  0.2666667E+00  0.2000000E+00  0.6666667E-01  0.1422222E-01
    1       -5.481031   1.000000
    2       -1.893167   0.000000
    3       -1.886485   0.000000
    4       -1.877111   0.000000
    5       -0.036337   0.000000

  0.3333333E+00  0.2000000E+00  0.6666667E-01  0.1422222E-01
    1       -5.480901   1.000000
    2       -1.898695   0.000000
    3       -1.885874   0.000000
    4       -1.876597   0.000000
    5        0.028479   0.000000

  0.4000000E+00  0.2000000E+00  0.6666667E-01  0.1422222E-01
    1       -5.480799   1.000000
    2       -1.902979   0.000000
    3       -1.885383   0.000000
    4       -1.876195   0.000000
    5        0.101946   0.000000

  0.4666667E+00  0.2000000E+00  0.6666667E-01  0.1422222E-01
    1       -5.480743   1.000000
    2       -1.905308   0.000000
    3       -1.885113   0.000000
    4       -1.875975   0.000000
    5        0.170828   0.000000

  0.2666667E+00  0.2666667E+00  0.6666667E-01  0.7111111E-02
    1       -5.480896   1.000000
    2       -1.892988   0.000000
    3       -1.891722   0.000000
    4       -1.876583   0.000000
    5        0.016243   0.000000

  0.3333333E+00  0.2666667E+00  0.6666667E-01  0.1422222E-01
    1       -5.480766   1.000000
    2       -1.897892   0.000000
    3       -1.891584   0.000000
    4       -1.876076   0.000000
    5        0.080994   0.000000

  0.4000000E+00  0.2666667E+00  0.6666667E-01  0.1422222E-01
    1       -5.480664   1.000000
    2       -1.902099   0.000000
    3       -1.891053   0.000000
    4       -1.875679   0.000000
    5        0.155043   0.000000

  0.4666667E+00  0.2666667E+00  0.6666667E-01  0.1422222E-01
    1       -5.480609   1.000000
    2       -1.904393   0.000000
    3       -1.890754   0.000000
    4       -1.875462   0.000000
    5        0.226960   0.000000

  0.3333333E+00  0.3333333E+00  0.6666667E-01  0.7111111E-02
    1       -5.480637   1.000000
    2       -1.897521   0.000000
    3       -1.896578   0.000000
    4       -1.875576   0.000000
    5        0.145718   0.000000

  0.4000000E+00  0.3333333E+00  0.6666667E-01  0.1422222E-01
    1       -5.480536   1.000000
    2       -1.901259   0.000000
    3       -1.896407   0.000000
    4       -1.875185   0.000000
    5        0.220243   0.000000

  0.4666667E+00  0.3333333E+00  0.6666667E-01  0.1422222E-01
    1       -5.480480   1.000000
    2       -1.903515   0.000000
    3       -1.896085   0.000000
    4       -1.874971   0.000000
    5        0.295392   0.000000

  0.4000000E+00  0.4000000E+00  0.6666667E-01  0.7111111E-02
    1       -5.480435   1.000000
    2       -1.900788   0.000000
    3       -1.900360   0.000000
    4       -1.874799   0.000000
    5        0.295304   0.000000

  0.4666667E+00  0.4000000E+00  0.6666667E-01  0.1422222E-01
    1       -5.480379   1.000000
    2       -1.902830   0.000000
    3       -1.900208   0.000000
    4       -1.874587   0.000000
    5        0.373077   0.000000

  0.4666667E+00  0.4666667E+00  0.6666667E-01  0.7111111E-02
    1       -5.480323   1.000000
    2       -1.902478   0.000000
    3       -1.902425   0.000000
    4       -1.874377   0.000000
    5        0.451515   0.000000

  0.1333333E+00  0.1333333E+00  0.1333333E+00  0.2370370E-02
    1       -5.481325   1.000000
    2       -1.882892   0.000000
    3       -1.881828   0.000000
    4       -1.881828   0.000000
    5       -0.143253   0.000000

  0.2000000E+00  0.1333333E+00  0.1333333E+00  0.7111111E-02
    1       -5.481206   1.000000
    2       -1.887479   0.000000
    3       -1.881932   0.000000
    4       -1.881323   0.000000
    5       -0.104260   0.000000

  0.2666667E+00  0.1333333E+00  0.1333333E+00  0.7111111E-02
    1       -5.481069   1.000000
    2       -1.893361   0.000000
    3       -1.881359   0.000000
    4       -1.880743   0.000000
    5       -0.051438   0.000000

  0.3333333E+00  0.1333333E+00  0.1333333E+00  0.7111111E-02
    1       -5.480938   1.000000
    2       -1.898928   0.000000
    3       -1.880794   0.000000
    4       -1.880187   0.000000
    5        0.013385   0.000000

  0.4000000E+00  0.1333333E+00  0.1333333E+00  0.7111111E-02
    1       -5.480836   1.000000
    2       -1.903233   0.000000
    3       -1.880348   0.000000
    4       -1.879752   0.000000
    5        0.086662   0.000000

  0.4666667E+00  0.1333333E+00  0.1333333E+00  0.7111111E-02
    1       -5.480780   1.000000
    2       -1.905572   0.000000
    3       -1.880103   0.000000
    4       -1.879514   0.000000
    5        0.154683   0.000000

  0.2000000E+00  0.2000000E+00  0.1333333E+00  0.7111111E-02
    1       -5.481087   1.000000
    2       -1.887456   0.000000
    3       -1.886252   0.000000
    4       -1.881094   0.000000
    5       -0.065454   0.000000

  0.2666667E+00  0.2000000E+00  0.1333333E+00  0.1422222E-01
    1       -5.480951   1.000000
    2       -1.892748   0.000000
    3       -1.886128   0.000000
    4       -1.880523   0.000000
    5       -0.012826   0.000000

  0.3333333E+00  0.2000000E+00  0.1333333E+00  0.1422222E-01
    1       -5.480821   1.000000
    2       -1.898228   0.000000
    3       -1.885524   0.000000
    4       -1.879970   0.000000
    5        0.051939   0.000000

  0.4000000E+00  0.2000000E+00  0.1333333E+00  0.1422222E-01
    1       -5.480719   1.000000
    2       -1.902477   0.000000
    3       -1.885038   0.000000
    4       -1.879536   0.000000
    5        0.125728   0.000000

  0.4666667E+00  0.2000000E+00  0.1333333E+00  0.1422222E-01
    1       -5.480663   1.000000
    2       -1.904787   0.000000
    3       -1.884771   0.000000
    4       -1.879299   0.000000
    5        0.196159   0.000000

  0.2666667E+00  0.2666667E+00  0.1333333E+00  0.7111111E-02
    1       -5.480816   1.000000
    2       -1.892573   0.000000
    3       -1.891314   0.000000
    4       -1.879961   0.000000
    5        0.039573   0.000000

  0.3333333E+00  0.2666667E+00  0.1333333E+00  0.1422222E-01
    1       -5.480687   1.000000
    2       -1.897434   0.000000
    3       -1.891181   0.000000
    4       -1.879416   0.000000
    5        0.104220   0.000000

  0.4000000E+00  0.2666667E+00  0.1333333E+00  0.1422222E-01
    1       -5.480585   1.000000
    2       -1.901608   0.000000
    3       -1.890657   0.000000
    4       -1.878989   0.000000
    5        0.178504   0.000000

  0.4666667E+00  0.2666667E+00  0.1333333E+00  0.1422222E-01
    1       -5.480529   1.000000
    2       -1.903884   0.000000
    3       -1.890361   0.000000
    4       -1.878755   0.000000
    5        0.251972   0.000000

  0.3333333E+00  0.3333333E+00  0.1333333E+00  0.7111111E-02
    1       -5.480558   1.000000
    2       -1.897068   0.000000
    3       -1.896137   0.000000
    4       -1.878880   0.000000
    5        0.168763   0.000000

  0.4000000E+00  0.3333333E+00  0.1333333E+00  0.1422222E-01
    1       -5.480457   1.000000
    2       -1.900779   0.000000
    3       -1.895968   0.000000
    4       -1.878459   0.000000
    5        0.243409   0.000000

  0.4666667E+00  0.3333333E+00  0.1333333E+00  0.1422222E-01
    1       -5.480401   1.000000
    2       -1.903019   0.000000
    3       -1.895650   0.000000
    4       -1.878229   0.000000
    5        0.320075   0.000000

  0.4000000E+00  0.4000000E+00  0.1333333E+00  0.7111111E-02
    1       -5.480356   1.000000
    2       -1.900314   0.000000
    3       -1.899893   0.000000
    4       -1.878044   0.000000
    5        0.318456   0.000000

  0.4666667E+00  0.4000000E+00  0.1333333E+00  0.1422222E-01
    1       -5.480301   1.000000
    2       -1.902343   0.000000
    3       -1.899742   0.000000
    4       -1.877816   0.000000
    5        0.397735   0.000000

  0.4666667E+00  0.4666667E+00  0.1333333E+00  0.7111111E-02
    1       -5.480246   1.000000
    2       -1.901996   0.000000
    3       -1.901944   0.000000
    4       -1.877590   0.000000
    5        0.478242   0.000000

  0.2000000E+00  0.2000000E+00  0.2000000E+00  0.2370370E-02
    1       -5.480970   1.000000
    2       -1.887355   0.000000
    3       -1.885703   0.000000
    4       -1.885703   0.000000
    5       -0.026862   0.000000

  0.2666667E+00  0.2000000E+00  0.2000000E+00  0.7111111E-02
    1       -5.480834   1.000000
    2       -1.892146   0.000000
    3       -1.886016   0.000000
    4       -1.885071   0.000000
    5        0.025531   0.000000

  0.3333333E+00  0.2000000E+00  0.2000000E+00  0.7111111E-02
    1       -5.480704   1.000000
    2       -1.897541   0.000000
    3       -1.885433   0.000000
    4       -1.884466   0.000000
    5        0.090175   0.000000

  0.4000000E+00  0.2000000E+00  0.2000000E+00  0.7111111E-02
    1       -5.480603   1.000000
    2       -1.901736   0.000000
    3       -1.884951   0.000000
    4       -1.883992   0.000000
    5        0.164370   0.000000

  0.4666667E+00  0.2000000E+00  0.2000000E+00  0.7111111E-02
    1       -5.480547   1.000000
    2       -1.904018   0.000000
    3       -1.884684   0.000000
    4       -1.883732   0.000000
    5        0.237214   0.000000

  0.2666667E+00  0.2666667E+00  0.2000000E+00  0.7111111E-02
    1       -5.480699   1.000000
    2       -1.891983   0.000000
    3       -1.890714   0.000000
    4       -1.884869   0.000000
    5        0.077633   0.000000

  0.3333333E+00  0.2666667E+00  0.2000000E+00  0.1422222E-01
    1       -5.480570   1.000000
    2       -1.896762   0.000000
    3       -1.890598   0.000000
    4       -1.884280   0.000000
    5        0.142063   0.000000

  0.4000000E+00  0.2666667E+00  0.2000000E+00  0.1422222E-01
    1       -5.480469   1.000000
    2       -1.900884   0.000000
    3       -1.890084   0.000000
    4       -1.883811   0.000000
    5        0.216595   0.000000

  0.4666667E+00  0.2666667E+00  0.2000000E+00  0.1422222E-01
    1       -5.480413   1.000000
    2       -1.903134   0.000000
    3       -1.889793   0.000000
    4       -1.883553   0.000000
    5        0.292406   0.000000

  0.3333333E+00  0.3333333E+00  0.2000000E+00  0.7111111E-02
    1       -5.480442   1.000000
    2       -1.896403   0.000000
    3       -1.895487   0.000000
    4       -1.883702   0.000000
    5        0.206252   0.000000

  0.4000000E+00  0.3333333E+00  0.2000000E+00  0.1422222E-01
    1       -5.480341   1.000000
    2       -1.900072   0.000000
    3       -1.895323   0.000000
    4       -1.883240   0.000000
    5        0.280934   0.000000

  0.4666667E+00  0.3333333E+00  0.2000000E+00  0.1422222E-01
    1       -5.480286   1.000000
    2       -1.902287   0.000000
    3       -1.895011   0.000000
    4       -1.882986   0.000000
    5        0.359750   0.000000

  0.4000000E+00  0.4000000E+00  0.2000000E+00  0.7111111E-02
    1       -5.480241   1.000000
    2       -1.899616   0.000000
    3       -1.899204   0.000000
    4       -1.882785   0.000000
    5        0.355740   0.000000

  0.4666667E+00  0.4000000E+00  0.2000000E+00  0.1422222E-01
    1       -5.480186   1.000000
    2       -1.901625   0.000000
    3       -1.899056   0.000000
    4       -1.882535   0.000000
    5        0.436894   0.000000

  0.4666667E+00  0.4666667E+00  0.2000000E+00  0.7111111E-02
    1       -5.480132   1.000000
    2       -1.901285   0.000000
    3       -1.901234   0.000000
    4       -1.882286   0.000000
    5        0.519622   0.000000

  0.2666667E+00  0.2666667E+00  0.2666667E+00  0.2370370E-02
    1       -5.480565   1.000000
    2       -1.891722   0.000000
    3       -1.890022   0.000000
    4       -1.890022   0.000000
    5        0.129350   0.000000

  0.3333333E+00  0.2666667E+00  0.2666667E+00  0.7111111E-02
    1       -5.480436   1.000000
    2       -1.896000   0.000000
    3       -1.890359   0.000000
    4       -1.889360   0.000000
    5        0.193423   0.000000

  0.4000000E+00  0.2666667E+00  0.2666667E+00  0.7111111E-02
    1       -5.480335   1.000000
    2       -1.900053   0.000000
    3       -1.889867   0.000000
    4       -1.888842   0.000000
    5        0.268051   0.000000

  0.4666667E+00  0.2666667E+00  0.2666667E+00  0.7111111E-02
    1       -5.480280   1.000000
    2       -1.902272   0.000000
    3       -1.889582   0.000000
    4       -1.888558   0.000000
    5        0.346581   0.000000

  0.3333333E+00  0.3333333E+00  0.2666667E+00  0.7111111E-02
    1       -5.480308   1.000000
    2       -1.895653   0.000000
    3       -1.894739   0.000000
    4       -1.889162   0.000000
    5        0.257050   0.000000

  0.4000000E+00  0.3333333E+00  0.2666667E+00  0.1422222E-01
    1       -5.480208   1.000000
    2       -1.899260   0.000000
    3       -1.894589   0.000000
    4       -1.888662   0.000000
    5        0.331495   0.000000

  0.4666667E+00  0.3333333E+00  0.2666667E+00  0.1422222E-01
    1       -5.480153   1.000000
    2       -1.901445   0.000000
    3       -1.894284   0.000000
    4       -1.888383   0.000000
    5        0.412490   0.000000

  0.4000000E+00  0.4000000E+00  0.2666667E+00  0.7111111E-02
    1       -5.480108   1.000000
    2       -1.898814   0.000000
    3       -1.898412   0.000000
    4       -1.888171   0.000000
    5        0.405593   0.000000

  0.4666667E+00  0.4000000E+00  0.2666667E+00  0.1422222E-01
    1       -5.480054   1.000000
    2       -1.900799   0.000000
    3       -1.898268   0.000000
    4       -1.887896   0.000000
    5        0.488063   0.000000

  0.4666667E+00  0.4666667E+00  0.2666667E+00  0.7111111E-02
    1       -5.479999   1.000000
    2       -1.900467   0.000000
    3       -1.900417   0.000000
    4       -1.887623   0.000000
    5        0.571148   0.000000

  0.3333333E+00  0.3333333E+00  0.3333333E+00  0.2370370E-02
    1       -5.480180   1.000000
    2       -1.895237   0.000000
    3       -1.894022   0.000000
    4       -1.894022   0.000000
    5        0.319938   0.000000

  0.4000000E+00  0.3333333E+00  0.3333333E+00  0.7111111E-02
    1       -5.480080   1.000000
    2       -1.898485   0.000000
    3       -1.894209   0.000000
    4       -1.893462   0.000000
    5        0.393725   0.000000

  0.4666667E+00  0.3333333E+00  0.3333333E+00  0.7111111E-02
    1       -5.480026   1.000000
    2       -1.900639   0.000000
    3       -1.893919   0.000000
    4       -1.893155   0.000000
    5        0.476115   0.000000

  0.4000000E+00  0.4000000E+00  0.3333333E+00  0.7111111E-02
    1       -5.479981   1.000000
    2       -1.898051   0.000000
    3       -1.897653   0.000000
    4       -1.893260   0.000000
    5        0.466472   0.000000

  0.4666667E+00  0.4000000E+00  0.3333333E+00  0.1422222E-01
    1       -5.479927   1.000000
    2       -1.900007   0.000000
    3       -1.897515   0.000000
    4       -1.892964   0.000000
    5        0.548676   0.000000

  0.4666667E+00  0.4666667E+00  0.3333333E+00  0.7111111E-02
    1       -5.479873   1.000000
    2       -1.899684   0.000000
    3       -1.899635   0.000000
    4       -1.892671   0.000000
    5        0.628785   0.000000

  0.4000000E+00  0.4000000E+00  0.4000000E+00  0.2370370E-02
    1       -5.479882   1.000000
    2       -1.897594   0.000000
    3       -1.897059   0.000000
    4       -1.897059   0.000000
    5        0.537167   0.000000

  0.4666667E+00  0.4000000E+00  0.4000000E+00  0.7111111E-02
    1       -5.479828   1.000000
    2       -1.899388   0.000000
    3       -1.897080   0.000000
    4       -1.896733   0.000000
    5        0.616801   0.000000

  0.4666667E+00  0.4666667E+00  0.4000000E+00  0.7111111E-02
    1       -5.479774   1.000000
    2       -1.899071   0.000000
    3       -1.899023   0.000000
    4       -1.896580   0.000000
    5        0.690681   0.000000

  0.4666667E+00  0.4666667E+00  0.4666667E+00  0.2370370E-02
    1       -5.479720   1.000000
    2       -1.898752   0.000000
    3       -1.898687   0.000000
    4       -1.898687   0.000000
    5        0.753562   0.000000
