 vasp.6.2.1 16May21 (build Dec 20 2021 17:02:34) complex                         
 executed on             LinuxGNU date 2026.04.15  21:38:55
 running on    1 total cores
 distrk:  each k-point on    1 cores,    1 groups
 distr:  one band on NCORE=   1 cores,    1 groups


--------------------------------------------------------------------------------------------------------


 INCAR:
   ISMEAR = 0
   NSW = 100
   IBRION = 2
   ISIF = 2
   ENCUT = 500
   EDIFF = 0.0000001

 POTCAR:    PAW_PBE Be 06Sep2000                  
 POTCAR:    PAW_PBE Be 06Sep2000                  
   VRHFIN =Be: s2p0                                                                                 
   LEXCH  = PE                                                                                      
   EATOM  =    27.4793 eV,    2.0197 Ry                                                             
                                                                                                    
   TITEL  = PAW_PBE Be 06Sep2000                                                                    
   LULTRA =        F    use ultrasoft PP ?                                                          
   IUNSCR =        1    unscreen: 0-lin 1-nonlin 2-no                                               
   RPACOR =    1.580    partial core radius                                                         
   POMASS =    9.013; ZVAL   =    2.000    mass and valenz                                          
   RCORE  =    1.900    outmost cutoff radius                                                       
   RWIGS  =    1.880; RWIGS  =    0.995    wigner-seitz radius (au A)                               
   ENMAX  =  247.543; ENMIN  =  185.658 eV                                                          
   ICORE  =        2    local potential                                                             
   LCOR   =        T    correct aug charges                                                         
   LPAW   =        T    paw PP                                                                      
   EAUG   =  318.781                                                                                
   DEXC   =    0.000                                                                                
   RMAX   =    1.944    core radius for proj-oper                                                   
   RAUG   =    1.300    factor for augmentation sphere                                              
   RDEP   =    2.003    radius for radial grids                                                     
   RDEPT  =    1.802    core radius for aug-charge                                                  
                                                                                                    
   Atomic configuration                                                                             
    4 entries                                                                                       
     n  l   j            E        occ.                                                              
     1  0  0.50      -106.2287   2.0000                                                             
     2  0  0.50        -5.6162   1.9900                                                             
     2  1  0.50        -2.0244   0.0100                                                             
     3  2  1.50        -1.3606   0.0000                                                             
   Description                                                                                      
     l       E           TYP  RCUT    TYP  RCUT                                                     
     0     -5.6161739     23  1.900                                                                 
     0     27.2116520     23  1.900                                                                 
     1     -2.0243505     23  1.900                                                                 
     1     27.2116520     23  1.900                                                                 
     2     -1.3605826     15  1.500                                                                 
  local pseudopotential read in
  partial core-charges read in
  partial kinetic energy density read in
  atomic valenz-charges read in
  non local Contribution for L=           0  read in
    real space projection operators read in
  non local Contribution for L=           0  read in
    real space projection operators read in
  non local Contribution for L=           1  read in
    real space projection operators read in
  non local Contribution for L=           1  read in
    real space projection operators read in
    PAW grid and wavefunctions read in

   number of l-projection  operators is LMAX  =           4
   number of lm-projection operators is LMMAX =           8

  PAW_PBE Be 06Sep2000                  :
 energy of atom  1       EATOM=  -27.4793
 kinetic energy error for atom=    0.0001 (will be added to EATOM!!)


 POSCAR: Be in 10x10x10 box centered
  positions in direct lattice
  No initial velocities read in
 exchange correlation table for  LEXCH =        8
   RHO(1)=    0.500       N(1)  =     2000
   RHO(2)=  100.500       N(2)  =     4000



--------------------------------------------------------------------------------------------------------


 ion  position               nearest neighbor table
   1  0.500  0.500  0.500-

  LATTYP: Found a simple cubic cell.
 ALAT       =    10.0000000000
  
  Lattice vectors:
  
 A1 = (  10.0000000000,   0.0000000000,   0.0000000000)
 A2 = (   0.0000000000,  10.0000000000,   0.0000000000)
 A3 = (   0.0000000000,   0.0000000000,  10.0000000000)


Analysis of symmetry for initial positions (statically):
=====================================================================
 Subroutine PRICEL returns:
 Original cell was already a primitive cell.
 

 Routine SETGRP: Setting up the symmetry group for a 
 simple cubic supercell.


 Subroutine GETGRP returns: Found 48 space group operations
 (whereof 48 operations were pure point group operations)
 out of a pool of 48 trial point group operations.


The static configuration has the point symmetry O_h .


Analysis of symmetry for dynamics (positions and initial velocities):
=====================================================================
 Subroutine PRICEL returns:
 Original cell was already a primitive cell.
 

 Routine SETGRP: Setting up the symmetry group for a 
 simple cubic supercell.


 Subroutine GETGRP returns: Found 48 space group operations
 (whereof 48 operations were pure point group operations)
 out of a pool of 48 trial point group operations.


The dynamic configuration has the point symmetry O_h .


 Subroutine INISYM returns: Found 48 space group operations
 (whereof 48 operations are pure point group operations),
 and found     1 'primitive' translations


----------------------------------------------------------------------------------------

                                     Primitive cell                                     

  volume of cell :    1000.0000

  direct lattice vectors                    reciprocal lattice vectors
    10.000000000  0.000000000  0.000000000     0.100000000  0.000000000  0.000000000
     0.000000000 10.000000000  0.000000000     0.000000000  0.100000000  0.000000000
     0.000000000  0.000000000 10.000000000     0.000000000  0.000000000  0.100000000

  length of vectors
    10.000000000 10.000000000 10.000000000     0.100000000  0.100000000  0.100000000

  position of ions in fractional coordinates (direct lattice)
     0.500000000  0.500000000  0.500000000

  ion indices of the primitive-cell ions
   primitive index   ion index
                 1           1

----------------------------------------------------------------------------------------



 KPOINTS: KPOINTS created by Atomic Simulation Env

Automatic generation of k-mesh.
 Grid dimensions read from file:
 generate k-points for:   15   15   15

 Generating k-lattice:

  Cartesian coordinates                     Fractional coordinates (reciprocal lattice)
     0.006666667  0.000000000  0.000000000     0.066666667  0.000000000  0.000000000
     0.000000000  0.006666667  0.000000000     0.000000000  0.066666667  0.000000000
     0.000000000  0.000000000  0.006666667     0.000000000  0.000000000  0.066666667

  Length of vectors
     0.006666667  0.006666667  0.006666667

  Shift w.r.t. Gamma in fractional coordinates (k-lattice)
     0.000000000  0.000000000  0.000000000

 
 Subroutine IBZKPT returns following result:
 ===========================================
 
 Found    120 irreducible k-points:
 
 Following reciprocal coordinates:
            Coordinates               Weight
  0.000000  0.000000  0.000000      1.000000
  0.066667  0.000000  0.000000      6.000000
  0.133333  0.000000  0.000000      6.000000
  0.200000  0.000000  0.000000      6.000000
  0.266667  0.000000  0.000000      6.000000
  0.333333  0.000000  0.000000      6.000000
  0.400000  0.000000  0.000000      6.000000
  0.466667  0.000000  0.000000      6.000000
  0.066667  0.066667  0.000000     12.000000
  0.133333  0.066667  0.000000     24.000000
  0.200000  0.066667  0.000000     24.000000
  0.266667  0.066667  0.000000     24.000000
  0.333333  0.066667  0.000000     24.000000
  0.400000  0.066667  0.000000     24.000000
  0.466667  0.066667  0.000000     24.000000
  0.133333  0.133333  0.000000     12.000000
  0.200000  0.133333  0.000000     24.000000
  0.266667  0.133333  0.000000     24.000000
  0.333333  0.133333  0.000000     24.000000
  0.400000  0.133333  0.000000     24.000000
  0.466667  0.133333  0.000000     24.000000
  0.200000  0.200000  0.000000     12.000000
  0.266667  0.200000  0.000000     24.000000
  0.333333  0.200000  0.000000     24.000000
  0.400000  0.200000  0.000000     24.000000
  0.466667  0.200000  0.000000     24.000000
  0.266667  0.266667  0.000000     12.000000
  0.333333  0.266667  0.000000     24.000000
  0.400000  0.266667  0.000000     24.000000
  0.466667  0.266667  0.000000     24.000000
  0.333333  0.333333  0.000000     12.000000
  0.400000  0.333333  0.000000     24.000000
  0.466667  0.333333  0.000000     24.000000
  0.400000  0.400000  0.000000     12.000000
  0.466667  0.400000  0.000000     24.000000
  0.466667  0.466667  0.000000     12.000000
  0.066667  0.066667  0.066667      8.000000
  0.133333  0.066667  0.066667     24.000000
  0.200000  0.066667  0.066667     24.000000
  0.266667  0.066667  0.066667     24.000000
  0.333333  0.066667  0.066667     24.000000
  0.400000  0.066667  0.066667     24.000000
  0.466667  0.066667  0.066667     24.000000
  0.133333  0.133333  0.066667     24.000000
  0.200000  0.133333  0.066667     48.000000
  0.266667  0.133333  0.066667     48.000000
  0.333333  0.133333  0.066667     48.000000
  0.400000  0.133333  0.066667     48.000000
  0.466667  0.133333  0.066667     48.000000
  0.200000  0.200000  0.066667     24.000000
  0.266667  0.200000  0.066667     48.000000
  0.333333  0.200000  0.066667     48.000000
  0.400000  0.200000  0.066667     48.000000
  0.466667  0.200000  0.066667     48.000000
  0.266667  0.266667  0.066667     24.000000
  0.333333  0.266667  0.066667     48.000000
  0.400000  0.266667  0.066667     48.000000
  0.466667  0.266667  0.066667     48.000000
  0.333333  0.333333  0.066667     24.000000
  0.400000  0.333333  0.066667     48.000000
  0.466667  0.333333  0.066667     48.000000
  0.400000  0.400000  0.066667     24.000000
  0.466667  0.400000  0.066667     48.000000
  0.466667  0.466667  0.066667     24.000000
  0.133333  0.133333  0.133333      8.000000
  0.200000  0.133333  0.133333     24.000000
  0.266667  0.133333  0.133333     24.000000
  0.333333  0.133333  0.133333     24.000000
  0.400000  0.133333  0.133333     24.000000
  0.466667  0.133333  0.133333     24.000000
  0.200000  0.200000  0.133333     24.000000
  0.266667  0.200000  0.133333     48.000000
  0.333333  0.200000  0.133333     48.000000
  0.400000  0.200000  0.133333     48.000000
  0.466667  0.200000  0.133333     48.000000
  0.266667  0.266667  0.133333     24.000000
  0.333333  0.266667  0.133333     48.000000
  0.400000  0.266667  0.133333     48.000000
  0.466667  0.266667  0.133333     48.000000
  0.333333  0.333333  0.133333     24.000000
  0.400000  0.333333  0.133333     48.000000
  0.466667  0.333333  0.133333     48.000000
  0.400000  0.400000  0.133333     24.000000
  0.466667  0.400000  0.133333     48.000000
  0.466667  0.466667  0.133333     24.000000
  0.200000  0.200000  0.200000      8.000000
  0.266667  0.200000  0.200000     24.000000
  0.333333  0.200000  0.200000     24.000000
  0.400000  0.200000  0.200000     24.000000
  0.466667  0.200000  0.200000     24.000000
  0.266667  0.266667  0.200000     24.000000
  0.333333  0.266667  0.200000     48.000000
  0.400000  0.266667  0.200000     48.000000
  0.466667  0.266667  0.200000     48.000000
  0.333333  0.333333  0.200000     24.000000
  0.400000  0.333333  0.200000     48.000000
  0.466667  0.333333  0.200000     48.000000
  0.400000  0.400000  0.200000     24.000000
  0.466667  0.400000  0.200000     48.000000
  0.466667  0.466667  0.200000     24.000000
  0.266667  0.266667  0.266667      8.000000
  0.333333  0.266667  0.266667     24.000000
  0.400000  0.266667  0.266667     24.000000
  0.466667  0.266667  0.266667     24.000000
  0.333333  0.333333  0.266667     24.000000
  0.400000  0.333333  0.266667     48.000000
  0.466667  0.333333  0.266667     48.000000
  0.400000  0.400000  0.266667     24.000000
  0.466667  0.400000  0.266667     48.000000
  0.466667  0.466667  0.266667     24.000000
  0.333333  0.333333  0.333333      8.000000
  0.400000  0.333333  0.333333     24.000000
  0.466667  0.333333  0.333333     24.000000
  0.400000  0.400000  0.333333     24.000000
  0.466667  0.400000  0.333333     48.000000
  0.466667  0.466667  0.333333     24.000000
  0.400000  0.400000  0.400000      8.000000
  0.466667  0.400000  0.400000     24.000000
  0.466667  0.466667  0.400000     24.000000
  0.466667  0.466667  0.466667      8.000000
 
 Following cartesian coordinates:
            Coordinates               Weight
  0.000000  0.000000  0.000000      1.000000
  0.006667  0.000000  0.000000      6.000000
  0.013333  0.000000  0.000000      6.000000
  0.020000  0.000000  0.000000      6.000000
  0.026667  0.000000  0.000000      6.000000
  0.033333  0.000000  0.000000      6.000000
  0.040000  0.000000  0.000000      6.000000
  0.046667  0.000000  0.000000      6.000000
  0.006667  0.006667  0.000000     12.000000
  0.013333  0.006667  0.000000     24.000000
  0.020000  0.006667  0.000000     24.000000
  0.026667  0.006667  0.000000     24.000000
  0.033333  0.006667  0.000000     24.000000
  0.040000  0.006667  0.000000     24.000000
  0.046667  0.006667  0.000000     24.000000
  0.013333  0.013333  0.000000     12.000000
  0.020000  0.013333  0.000000     24.000000
  0.026667  0.013333  0.000000     24.000000
  0.033333  0.013333  0.000000     24.000000
  0.040000  0.013333  0.000000     24.000000
  0.046667  0.013333  0.000000     24.000000
  0.020000  0.020000  0.000000     12.000000
  0.026667  0.020000  0.000000     24.000000
  0.033333  0.020000  0.000000     24.000000
  0.040000  0.020000  0.000000     24.000000
  0.046667  0.020000  0.000000     24.000000
  0.026667  0.026667  0.000000     12.000000
  0.033333  0.026667  0.000000     24.000000
  0.040000  0.026667  0.000000     24.000000
  0.046667  0.026667  0.000000     24.000000
  0.033333  0.033333  0.000000     12.000000
  0.040000  0.033333  0.000000     24.000000
  0.046667  0.033333  0.000000     24.000000
  0.040000  0.040000  0.000000     12.000000
  0.046667  0.040000  0.000000     24.000000
  0.046667  0.046667  0.000000     12.000000
  0.006667  0.006667  0.006667      8.000000
  0.013333  0.006667  0.006667     24.000000
  0.020000  0.006667  0.006667     24.000000
  0.026667  0.006667  0.006667     24.000000
  0.033333  0.006667  0.006667     24.000000
  0.040000  0.006667  0.006667     24.000000
  0.046667  0.006667  0.006667     24.000000
  0.013333  0.013333  0.006667     24.000000
  0.020000  0.013333  0.006667     48.000000
  0.026667  0.013333  0.006667     48.000000
  0.033333  0.013333  0.006667     48.000000
  0.040000  0.013333  0.006667     48.000000
  0.046667  0.013333  0.006667     48.000000
  0.020000  0.020000  0.006667     24.000000
  0.026667  0.020000  0.006667     48.000000
  0.033333  0.020000  0.006667     48.000000
  0.040000  0.020000  0.006667     48.000000
  0.046667  0.020000  0.006667     48.000000
  0.026667  0.026667  0.006667     24.000000
  0.033333  0.026667  0.006667     48.000000
  0.040000  0.026667  0.006667     48.000000
  0.046667  0.026667  0.006667     48.000000
  0.033333  0.033333  0.006667     24.000000
  0.040000  0.033333  0.006667     48.000000
  0.046667  0.033333  0.006667     48.000000
  0.040000  0.040000  0.006667     24.000000
  0.046667  0.040000  0.006667     48.000000
  0.046667  0.046667  0.006667     24.000000
  0.013333  0.013333  0.013333      8.000000
  0.020000  0.013333  0.013333     24.000000
  0.026667  0.013333  0.013333     24.000000
  0.033333  0.013333  0.013333     24.000000
  0.040000  0.013333  0.013333     24.000000
  0.046667  0.013333  0.013333     24.000000
  0.020000  0.020000  0.013333     24.000000
  0.026667  0.020000  0.013333     48.000000
  0.033333  0.020000  0.013333     48.000000
  0.040000  0.020000  0.013333     48.000000
  0.046667  0.020000  0.013333     48.000000
  0.026667  0.026667  0.013333     24.000000
  0.033333  0.026667  0.013333     48.000000
  0.040000  0.026667  0.013333     48.000000
  0.046667  0.026667  0.013333     48.000000
  0.033333  0.033333  0.013333     24.000000
  0.040000  0.033333  0.013333     48.000000
  0.046667  0.033333  0.013333     48.000000
  0.040000  0.040000  0.013333     24.000000
  0.046667  0.040000  0.013333     48.000000
  0.046667  0.046667  0.013333     24.000000
  0.020000  0.020000  0.020000      8.000000
  0.026667  0.020000  0.020000     24.000000
  0.033333  0.020000  0.020000     24.000000
  0.040000  0.020000  0.020000     24.000000
  0.046667  0.020000  0.020000     24.000000
  0.026667  0.026667  0.020000     24.000000
  0.033333  0.026667  0.020000     48.000000
  0.040000  0.026667  0.020000     48.000000
  0.046667  0.026667  0.020000     48.000000
  0.033333  0.033333  0.020000     24.000000
  0.040000  0.033333  0.020000     48.000000
  0.046667  0.033333  0.020000     48.000000
  0.040000  0.040000  0.020000     24.000000
  0.046667  0.040000  0.020000     48.000000
  0.046667  0.046667  0.020000     24.000000
  0.026667  0.026667  0.026667      8.000000
  0.033333  0.026667  0.026667     24.000000
  0.040000  0.026667  0.026667     24.000000
  0.046667  0.026667  0.026667     24.000000
  0.033333  0.033333  0.026667     24.000000
  0.040000  0.033333  0.026667     48.000000
  0.046667  0.033333  0.026667     48.000000
  0.040000  0.040000  0.026667     24.000000
  0.046667  0.040000  0.026667     48.000000
  0.046667  0.046667  0.026667     24.000000
  0.033333  0.033333  0.033333      8.000000
  0.040000  0.033333  0.033333     24.000000
  0.046667  0.033333  0.033333     24.000000
  0.040000  0.040000  0.033333     24.000000
  0.046667  0.040000  0.033333     48.000000
  0.046667  0.046667  0.033333     24.000000
  0.040000  0.040000  0.040000      8.000000
  0.046667  0.040000  0.040000     24.000000
  0.046667  0.046667  0.040000     24.000000
  0.046667  0.046667  0.046667      8.000000
 


--------------------------------------------------------------------------------------------------------




 Dimension of arrays:
   k-points           NKPTS =    120   k-points in BZ     NKDIM =    120   number of bands    NBANDS=      5
   number of dos      NEDOS =    301   number of ions     NIONS =      1
   non local maximal  LDIM  =      4   non local SUM 2l+1 LMDIM =      8
   total plane-waves  NPLWV = 175616
   max r-space proj   IRMAX =      1   max aug-charges    IRDMAX=   6162
   dimension x,y,z NGX =    56 NGY =   56 NGZ =   56
   dimension x,y,z NGXF=   112 NGYF=  112 NGZF=  112
   support grid    NGXF=   112 NGYF=  112 NGZF=  112
   ions per type =               1
   NGX,Y,Z   is equivalent  to a cutoff of   9.31,  9.31,  9.31 a.u.
   NGXF,Y,Z  is equivalent  to a cutoff of  18.62, 18.62, 18.62 a.u.

 SYSTEM =  unknown system                          
 POSCAR =  Be in 10x10x10 box centered             

 Startparameter for this run:
   NWRITE =      2    write-flag & timer
   PREC   = normal    normal or accurate (medium, high low for compatibility)
   ISTART =      0    job   : 0-new  1-cont  2-samecut
   ICHARG =      2    charge: 1-file 2-atom 10-const
   ISPIN  =      1    spin polarized calculation?
   LNONCOLLINEAR =      F non collinear calculations
   LSORBIT =      F    spin-orbit coupling
   INIWAV =      1    electr: 0-lowe 1-rand  2-diag
   LASPH  =      F    aspherical Exc in radial PAW
 Electronic Relaxation 1
   ENCUT  =  500.0 eV  36.75 Ry    6.06 a.u.  18.23 18.23 18.23*2*pi/ulx,y,z
   ENINI  =  500.0     initial cutoff
   ENAUG  =  318.8 eV  augmentation charge cutoff
   NELM   =     60;   NELMIN=  2; NELMDL=  0     # of ELM steps 
   EDIFF  = 0.1E-06   stopping-criterion for ELM
   LREAL  =      F    real-space projection
   NLSPLINE    = F    spline interpolate recip. space projectors
   LCOMPAT=      F    compatible to vasp.4.4
   GGA_COMPAT  = T    GGA compatible to vasp.4.4-vasp.4.6
   LMAXPAW     = -100 max onsite density
   LMAXMIX     =    2 max onsite mixed and CHGCAR
   VOSKOWN=      0    Vosko Wilk Nusair interpolation
   ROPT   =    0.00000
 Ionic relaxation
   EDIFFG = 0.1E-05   stopping-criterion for IOM
   NSW    =    100    number of steps for IOM
   NBLOCK =      1;   KBLOCK =    100    inner block; outer block 
   IBRION =      2    ionic relax: 0-MD 1-quasi-New 2-CG
   NFREE  =      1    steps in history (QN), initial steepest desc. (CG)
   ISIF   =      2    stress and relaxation
   IWAVPR =     11    prediction:  0-non 1-charg 2-wave 3-comb
   ISYM   =      2    0-nonsym 1-usesym 2-fastsym
   LCORR  =      T    Harris-Foulkes like correction to forces

   POTIM  = 0.5000    time-step for ionic-motion
   TEIN   =    0.0    initial temperature
   TEBEG  =    0.0;   TEEND  =   0.0 temperature during run
   SMASS  =  -3.00    Nose mass-parameter (am)
   estimated Nose-frequenzy (Omega)   =  0.10E-29 period in steps = 0.13E+47 mass=  -0.229E-26a.u.
   SCALEE = 1.0000    scale energy and forces
   NPACO  =    256;   APACO  = 16.0  distance and # of slots for P.C.
   PSTRESS=    0.0 pullay stress

  Mass of Ions in am
   POMASS =   9.01
  Ionic Valenz
   ZVAL   =   2.00
  Atomic Wigner-Seitz radii
   RWIGS  =  -1.00
  virtual crystal weights 
   VCA    =   1.00
   NELECT =       2.0000    total number of electrons
   NUPDOWN=      -1.0000    fix difference up-down

 DOS related values:
   EMIN   =  10.00;   EMAX   =-10.00  energy-range for DOS
   EFERMI =   0.00
   ISMEAR =     0;   SIGMA  =   0.20  broadening in eV -4-tet -1-fermi 0-gaus

 Electronic relaxation 2 (details)
   IALGO  =     38    algorithm
   LDIAG  =      T    sub-space diagonalisation (order eigenvalues)
   LSUBROT=      F    optimize rotation matrix (better conditioning)
   TURBO    =      0    0=normal 1=particle mesh
   IRESTART =      0    0=no restart 2=restart with 2 vectors
   NREBOOT  =      0    no. of reboots
   NMIN     =      0    reboot dimension
   EREF     =   0.00    reference energy to select bands
   IMIX   =      4    mixing-type and parameters
     AMIX     =   0.40;   BMIX     =  1.00
     AMIX_MAG =   1.60;   BMIX_MAG =  1.00
     AMIN     =   0.10
     WC   =   100.;   INIMIX=   1;  MIXPRE=   1;  MAXMIX= -45

 Intra band minimization:
   WEIMIN = 0.0010     energy-eigenvalue tresh-hold
   EBREAK =  0.50E-08  absolut break condition
   DEPER  =   0.30     relativ break condition  

   TIME   =   0.40     timestep for ELM

  volume/ion in A,a.u.               =    1000.00      6748.33
  Fermi-wavevector in a.u.,A,eV,Ry     =   0.206261  0.389778  0.578844  0.042544
  Thomas-Fermi vector in A             =   0.968418

 Write flags
   LWAVE        =      T    write WAVECAR
   LDOWNSAMPLE  =      F    k-point downsampling of WAVECAR
   LCHARG       =      T    write CHGCAR
   LVTOT        =      F    write LOCPOT, total local potential
   LVHAR        =      F    write LOCPOT, Hartree potential only
   LELF         =      F    write electronic localiz. function (ELF)
   LORBIT       =      0    0 simple, 1 ext, 2 COOP (PROOUT), +10 PAW based schemes


 Dipole corrections
   LMONO  =      F    monopole corrections only (constant potential shift)
   LDIPOL =      F    correct potential (dipole corrections)
   IDIPOL =      0    1-x, 2-y, 3-z, 4-all directions 
   EPSILON=  1.0000000 bulk dielectric constant

 Exchange correlation treatment:
   GGA     =    --    GGA type
   LEXCH   =     8    internal setting for exchange type
   VOSKOWN=      0    Vosko Wilk Nusair interpolation
   LHFCALC =     F    Hartree Fock is set to
   LHFONE  =     F    Hartree Fock one center treatment
   AEXX    =    0.0000 exact exchange contribution

 Linear response parameters
   LEPSILON=     F    determine dielectric tensor
   LRPA    =     F    only Hartree local field effects (RPA)
   LNABLA  =     F    use nabla operator in PAW spheres
   LVEL    =     F    velocity operator in full k-point grid
   LINTERFAST=   F  fast interpolation
   KINTER  =     0    interpolate to denser k-point grid
   CSHIFT  =0.1000    complex shift for real part using Kramers Kronig
   OMEGAMAX=  -1.0    maximum frequency
   DEG_THRESHOLD= 0.2000000E-02 threshold for treating states as degnerate
   RTIME   =   -0.100 relaxation time in fs
  (WPLASMAI=    0.000 imaginary part of plasma frequency in eV, 0.658/RTIME)
   DFIELD  = 0.0000000 0.0000000 0.0000000 field for delta impulse in time

 Orbital magnetization related:
   ORBITALMAG=     F  switch on orbital magnetization
   LCHIMAG   =     F  perturbation theory with respect to B field
   DQ        =  0.001000  dq finite difference perturbation B field
   LLRAUG    =     F  two centre corrections for induced B field



--------------------------------------------------------------------------------------------------------


 conjugate gradient relaxation of ions
 charge density and potential will be updated during run
 non-spin polarized calculation
 Variant of blocked Davidson
 Davidson routine will perform the subspace rotation
 perform sub-space diagonalisation
    after iterative eigenvector-optimisation
 modified Broyden-mixing scheme, WC =      100.0
 initial mixing is a Kerker type mixing with AMIX =  0.4000 and BMIX =      1.0000
 Hartree-type preconditioning will be used
 using additional bands            4
 reciprocal scheme for non local part
 use partial core corrections
 calculate Harris-corrections to forces   (improved forces if not selfconsistent)
 use gradient corrections 
 use of overlap-Matrix (Vanderbilt PP)
 Gauss-broadening in eV      SIGMA  =   0.20


--------------------------------------------------------------------------------------------------------


  energy-cutoff  :      500.00
  volume of cell :     1000.00
      direct lattice vectors                 reciprocal lattice vectors
    10.000000000  0.000000000  0.000000000     0.100000000  0.000000000  0.000000000
     0.000000000 10.000000000  0.000000000     0.000000000  0.100000000  0.000000000
     0.000000000  0.000000000 10.000000000     0.000000000  0.000000000  0.100000000

  length of vectors
    10.000000000 10.000000000 10.000000000     0.100000000  0.100000000  0.100000000



 k-points in units of 2pi/SCALE and weight: KPOINTS created by Atomic Simulation Env
   0.00000000  0.00000000  0.00000000       0.000
   0.00666667  0.00000000  0.00000000       0.002
   0.01333333  0.00000000  0.00000000       0.002
   0.02000000  0.00000000  0.00000000       0.002
   0.02666667  0.00000000  0.00000000       0.002
   0.03333333  0.00000000  0.00000000       0.002
   0.04000000  0.00000000  0.00000000       0.002
   0.04666667  0.00000000  0.00000000       0.002
   0.00666667  0.00666667  0.00000000       0.004
   0.01333333  0.00666667  0.00000000       0.007
   0.02000000  0.00666667  0.00000000       0.007
   0.02666667  0.00666667  0.00000000       0.007
   0.03333333  0.00666667  0.00000000       0.007
   0.04000000  0.00666667  0.00000000       0.007
   0.04666667  0.00666667  0.00000000       0.007
   0.01333333  0.01333333  0.00000000       0.004
   0.02000000  0.01333333  0.00000000       0.007
   0.02666667  0.01333333  0.00000000       0.007
   0.03333333  0.01333333  0.00000000       0.007
   0.04000000  0.01333333  0.00000000       0.007
   0.04666667  0.01333333  0.00000000       0.007
   0.02000000  0.02000000  0.00000000       0.004
   0.02666667  0.02000000  0.00000000       0.007
   0.03333333  0.02000000  0.00000000       0.007
   0.04000000  0.02000000  0.00000000       0.007
   0.04666667  0.02000000  0.00000000       0.007
   0.02666667  0.02666667  0.00000000       0.004
   0.03333333  0.02666667  0.00000000       0.007
   0.04000000  0.02666667  0.00000000       0.007
   0.04666667  0.02666667  0.00000000       0.007
   0.03333333  0.03333333  0.00000000       0.004
   0.04000000  0.03333333  0.00000000       0.007
   0.04666667  0.03333333  0.00000000       0.007
   0.04000000  0.04000000  0.00000000       0.004
   0.04666667  0.04000000  0.00000000       0.007
   0.04666667  0.04666667  0.00000000       0.004
   0.00666667  0.00666667  0.00666667       0.002
   0.01333333  0.00666667  0.00666667       0.007
   0.02000000  0.00666667  0.00666667       0.007
   0.02666667  0.00666667  0.00666667       0.007
   0.03333333  0.00666667  0.00666667       0.007
   0.04000000  0.00666667  0.00666667       0.007
   0.04666667  0.00666667  0.00666667       0.007
   0.01333333  0.01333333  0.00666667       0.007
   0.02000000  0.01333333  0.00666667       0.014
   0.02666667  0.01333333  0.00666667       0.014
   0.03333333  0.01333333  0.00666667       0.014
   0.04000000  0.01333333  0.00666667       0.014
   0.04666667  0.01333333  0.00666667       0.014
   0.02000000  0.02000000  0.00666667       0.007
   0.02666667  0.02000000  0.00666667       0.014
   0.03333333  0.02000000  0.00666667       0.014
   0.04000000  0.02000000  0.00666667       0.014
   0.04666667  0.02000000  0.00666667       0.014
   0.02666667  0.02666667  0.00666667       0.007
   0.03333333  0.02666667  0.00666667       0.014
   0.04000000  0.02666667  0.00666667       0.014
   0.04666667  0.02666667  0.00666667       0.014
   0.03333333  0.03333333  0.00666667       0.007
   0.04000000  0.03333333  0.00666667       0.014
   0.04666667  0.03333333  0.00666667       0.014
   0.04000000  0.04000000  0.00666667       0.007
   0.04666667  0.04000000  0.00666667       0.014
   0.04666667  0.04666667  0.00666667       0.007
   0.01333333  0.01333333  0.01333333       0.002
   0.02000000  0.01333333  0.01333333       0.007
   0.02666667  0.01333333  0.01333333       0.007
   0.03333333  0.01333333  0.01333333       0.007
   0.04000000  0.01333333  0.01333333       0.007
   0.04666667  0.01333333  0.01333333       0.007
   0.02000000  0.02000000  0.01333333       0.007
   0.02666667  0.02000000  0.01333333       0.014
   0.03333333  0.02000000  0.01333333       0.014
   0.04000000  0.02000000  0.01333333       0.014
   0.04666667  0.02000000  0.01333333       0.014
   0.02666667  0.02666667  0.01333333       0.007
   0.03333333  0.02666667  0.01333333       0.014
   0.04000000  0.02666667  0.01333333       0.014
   0.04666667  0.02666667  0.01333333       0.014
   0.03333333  0.03333333  0.01333333       0.007
   0.04000000  0.03333333  0.01333333       0.014
   0.04666667  0.03333333  0.01333333       0.014
   0.04000000  0.04000000  0.01333333       0.007
   0.04666667  0.04000000  0.01333333       0.014
   0.04666667  0.04666667  0.01333333       0.007
   0.02000000  0.02000000  0.02000000       0.002
   0.02666667  0.02000000  0.02000000       0.007
   0.03333333  0.02000000  0.02000000       0.007
   0.04000000  0.02000000  0.02000000       0.007
   0.04666667  0.02000000  0.02000000       0.007
   0.02666667  0.02666667  0.02000000       0.007
   0.03333333  0.02666667  0.02000000       0.014
   0.04000000  0.02666667  0.02000000       0.014
   0.04666667  0.02666667  0.02000000       0.014
   0.03333333  0.03333333  0.02000000       0.007
   0.04000000  0.03333333  0.02000000       0.014
   0.04666667  0.03333333  0.02000000       0.014
   0.04000000  0.04000000  0.02000000       0.007
   0.04666667  0.04000000  0.02000000       0.014
   0.04666667  0.04666667  0.02000000       0.007
   0.02666667  0.02666667  0.02666667       0.002
   0.03333333  0.02666667  0.02666667       0.007
   0.04000000  0.02666667  0.02666667       0.007
   0.04666667  0.02666667  0.02666667       0.007
   0.03333333  0.03333333  0.02666667       0.007
   0.04000000  0.03333333  0.02666667       0.014
   0.04666667  0.03333333  0.02666667       0.014
   0.04000000  0.04000000  0.02666667       0.007
   0.04666667  0.04000000  0.02666667       0.014
   0.04666667  0.04666667  0.02666667       0.007
   0.03333333  0.03333333  0.03333333       0.002
   0.04000000  0.03333333  0.03333333       0.007
   0.04666667  0.03333333  0.03333333       0.007
   0.04000000  0.04000000  0.03333333       0.007
   0.04666667  0.04000000  0.03333333       0.014
   0.04666667  0.04666667  0.03333333       0.007
   0.04000000  0.04000000  0.04000000       0.002
   0.04666667  0.04000000  0.04000000       0.007
   0.04666667  0.04666667  0.04000000       0.007
   0.04666667  0.04666667  0.04666667       0.002

 k-points in reciprocal lattice and weights: KPOINTS created by Atomic Simulation Env
   0.00000000  0.00000000  0.00000000       0.000
   0.06666667  0.00000000  0.00000000       0.002
   0.13333333  0.00000000  0.00000000       0.002
   0.20000000  0.00000000  0.00000000       0.002
   0.26666667  0.00000000  0.00000000       0.002
   0.33333333  0.00000000  0.00000000       0.002
   0.40000000  0.00000000  0.00000000       0.002
   0.46666667  0.00000000  0.00000000       0.002
   0.06666667  0.06666667  0.00000000       0.004
   0.13333333  0.06666667  0.00000000       0.007
   0.20000000  0.06666667  0.00000000       0.007
   0.26666667  0.06666667  0.00000000       0.007
   0.33333333  0.06666667  0.00000000       0.007
   0.40000000  0.06666667  0.00000000       0.007
   0.46666667  0.06666667  0.00000000       0.007
   0.13333333  0.13333333  0.00000000       0.004
   0.20000000  0.13333333  0.00000000       0.007
   0.26666667  0.13333333  0.00000000       0.007
   0.33333333  0.13333333  0.00000000       0.007
   0.40000000  0.13333333  0.00000000       0.007
   0.46666667  0.13333333  0.00000000       0.007
   0.20000000  0.20000000  0.00000000       0.004
   0.26666667  0.20000000  0.00000000       0.007
   0.33333333  0.20000000  0.00000000       0.007
   0.40000000  0.20000000  0.00000000       0.007
   0.46666667  0.20000000  0.00000000       0.007
   0.26666667  0.26666667  0.00000000       0.004
   0.33333333  0.26666667  0.00000000       0.007
   0.40000000  0.26666667  0.00000000       0.007
   0.46666667  0.26666667  0.00000000       0.007
   0.33333333  0.33333333  0.00000000       0.004
   0.40000000  0.33333333  0.00000000       0.007
   0.46666667  0.33333333  0.00000000       0.007
   0.40000000  0.40000000  0.00000000       0.004
   0.46666667  0.40000000  0.00000000       0.007
   0.46666667  0.46666667  0.00000000       0.004
   0.06666667  0.06666667  0.06666667       0.002
   0.13333333  0.06666667  0.06666667       0.007
   0.20000000  0.06666667  0.06666667       0.007
   0.26666667  0.06666667  0.06666667       0.007
   0.33333333  0.06666667  0.06666667       0.007
   0.40000000  0.06666667  0.06666667       0.007
   0.46666667  0.06666667  0.06666667       0.007
   0.13333333  0.13333333  0.06666667       0.007
   0.20000000  0.13333333  0.06666667       0.014
   0.26666667  0.13333333  0.06666667       0.014
   0.33333333  0.13333333  0.06666667       0.014
   0.40000000  0.13333333  0.06666667       0.014
   0.46666667  0.13333333  0.06666667       0.014
   0.20000000  0.20000000  0.06666667       0.007
   0.26666667  0.20000000  0.06666667       0.014
   0.33333333  0.20000000  0.06666667       0.014
   0.40000000  0.20000000  0.06666667       0.014
   0.46666667  0.20000000  0.06666667       0.014
   0.26666667  0.26666667  0.06666667       0.007
   0.33333333  0.26666667  0.06666667       0.014
   0.40000000  0.26666667  0.06666667       0.014
   0.46666667  0.26666667  0.06666667       0.014
   0.33333333  0.33333333  0.06666667       0.007
   0.40000000  0.33333333  0.06666667       0.014
   0.46666667  0.33333333  0.06666667       0.014
   0.40000000  0.40000000  0.06666667       0.007
   0.46666667  0.40000000  0.06666667       0.014
   0.46666667  0.46666667  0.06666667       0.007
   0.13333333  0.13333333  0.13333333       0.002
   0.20000000  0.13333333  0.13333333       0.007
   0.26666667  0.13333333  0.13333333       0.007
   0.33333333  0.13333333  0.13333333       0.007
   0.40000000  0.13333333  0.13333333       0.007
   0.46666667  0.13333333  0.13333333       0.007
   0.20000000  0.20000000  0.13333333       0.007
   0.26666667  0.20000000  0.13333333       0.014
   0.33333333  0.20000000  0.13333333       0.014
   0.40000000  0.20000000  0.13333333       0.014
   0.46666667  0.20000000  0.13333333       0.014
   0.26666667  0.26666667  0.13333333       0.007
   0.33333333  0.26666667  0.13333333       0.014
   0.40000000  0.26666667  0.13333333       0.014
   0.46666667  0.26666667  0.13333333       0.014
   0.33333333  0.33333333  0.13333333       0.007
   0.40000000  0.33333333  0.13333333       0.014
   0.46666667  0.33333333  0.13333333       0.014
   0.40000000  0.40000000  0.13333333       0.007
   0.46666667  0.40000000  0.13333333       0.014
   0.46666667  0.46666667  0.13333333       0.007
   0.20000000  0.20000000  0.20000000       0.002
   0.26666667  0.20000000  0.20000000       0.007
   0.33333333  0.20000000  0.20000000       0.007
   0.40000000  0.20000000  0.20000000       0.007
   0.46666667  0.20000000  0.20000000       0.007
   0.26666667  0.26666667  0.20000000       0.007
   0.33333333  0.26666667  0.20000000       0.014
   0.40000000  0.26666667  0.20000000       0.014
   0.46666667  0.26666667  0.20000000       0.014
   0.33333333  0.33333333  0.20000000       0.007
   0.40000000  0.33333333  0.20000000       0.014
   0.46666667  0.33333333  0.20000000       0.014
   0.40000000  0.40000000  0.20000000       0.007
   0.46666667  0.40000000  0.20000000       0.014
   0.46666667  0.46666667  0.20000000       0.007
   0.26666667  0.26666667  0.26666667       0.002
   0.33333333  0.26666667  0.26666667       0.007
   0.40000000  0.26666667  0.26666667       0.007
   0.46666667  0.26666667  0.26666667       0.007
   0.33333333  0.33333333  0.26666667       0.007
   0.40000000  0.33333333  0.26666667       0.014
   0.46666667  0.33333333  0.26666667       0.014
   0.40000000  0.40000000  0.26666667       0.007
   0.46666667  0.40000000  0.26666667       0.014
   0.46666667  0.46666667  0.26666667       0.007
   0.33333333  0.33333333  0.33333333       0.002
   0.40000000  0.33333333  0.33333333       0.007
   0.46666667  0.33333333  0.33333333       0.007
   0.40000000  0.40000000  0.33333333       0.007
   0.46666667  0.40000000  0.33333333       0.014
   0.46666667  0.46666667  0.33333333       0.007
   0.40000000  0.40000000  0.40000000       0.002
   0.46666667  0.40000000  0.40000000       0.007
   0.46666667  0.46666667  0.40000000       0.007
   0.46666667  0.46666667  0.46666667       0.002

 position of ions in fractional coordinates (direct lattice) 
   0.50000000  0.50000000  0.50000000

 position of ions in cartesian coordinates  (Angst):
   5.00000000  5.00000000  5.00000000



--------------------------------------------------------------------------------------------------------


 k-point   1 :   0.0000 0.0000 0.0000  plane waves:   25413
 k-point   2 :   0.0667 0.0000 0.0000  plane waves:   25441
 k-point   3 :   0.1333 0.0000 0.0000  plane waves:   25393
 k-point   4 :   0.2000 0.0000 0.0000  plane waves:   25381
 k-point   5 :   0.2667 0.0000 0.0000  plane waves:   25356
 k-point   6 :   0.3333 0.0000 0.0000  plane waves:   25404
 k-point   7 :   0.4000 0.0000 0.0000  plane waves:   25376
 k-point   8 :   0.4667 0.0000 0.0000  plane waves:   25376
 k-point   9 :   0.0667 0.0667 0.0000  plane waves:   25433
 k-point  10 :   0.1333 0.0667 0.0000  plane waves:   25386
 k-point  11 :   0.2000 0.0667 0.0000  plane waves:   25385
 k-point  12 :   0.2667 0.0667 0.0000  plane waves:   25386
 k-point  13 :   0.3333 0.0667 0.0000  plane waves:   25383
 k-point  14 :   0.4000 0.0667 0.0000  plane waves:   25361
 k-point  15 :   0.4667 0.0667 0.0000  plane waves:   25364
 k-point  16 :   0.1333 0.1333 0.0000  plane waves:   25372
 k-point  17 :   0.2000 0.1333 0.0000  plane waves:   25372
 k-point  18 :   0.2667 0.1333 0.0000  plane waves:   25373
 k-point  19 :   0.3333 0.1333 0.0000  plane waves:   25389
 k-point  20 :   0.4000 0.1333 0.0000  plane waves:   25399
 k-point  21 :   0.4667 0.1333 0.0000  plane waves:   25369
 k-point  22 :   0.2000 0.2000 0.0000  plane waves:   25382
 k-point  23 :   0.2667 0.2000 0.0000  plane waves:   25381
 k-point  24 :   0.3333 0.2000 0.0000  plane waves:   25384
 k-point  25 :   0.4000 0.2000 0.0000  plane waves:   25386
 k-point  26 :   0.4667 0.2000 0.0000  plane waves:   25402
 k-point  27 :   0.2667 0.2667 0.0000  plane waves:   25384
 k-point  28 :   0.3333 0.2667 0.0000  plane waves:   25398
 k-point  29 :   0.4000 0.2667 0.0000  plane waves:   25389
 k-point  30 :   0.4667 0.2667 0.0000  plane waves:   25393
 k-point  31 :   0.3333 0.3333 0.0000  plane waves:   25408
 k-point  32 :   0.4000 0.3333 0.0000  plane waves:   25400
 k-point  33 :   0.4667 0.3333 0.0000  plane waves:   25391
 k-point  34 :   0.4000 0.4000 0.0000  plane waves:   25398
 k-point  35 :   0.4667 0.4000 0.0000  plane waves:   25413
 k-point  36 :   0.4667 0.4667 0.0000  plane waves:   25432
 k-point  37 :   0.0667 0.0667 0.0667  plane waves:   25434
 k-point  38 :   0.1333 0.0667 0.0667  plane waves:   25388
 k-point  39 :   0.2000 0.0667 0.0667  plane waves:   25393
 k-point  40 :   0.2667 0.0667 0.0667  plane waves:   25390
 k-point  41 :   0.3333 0.0667 0.0667  plane waves:   25388
 k-point  42 :   0.4000 0.0667 0.0667  plane waves:   25371
 k-point  43 :   0.4667 0.0667 0.0667  plane waves:   25370
 k-point  44 :   0.1333 0.1333 0.0667  plane waves:   25381
 k-point  45 :   0.2000 0.1333 0.0667  plane waves:   25376
 k-point  46 :   0.2667 0.1333 0.0667  plane waves:   25382
 k-point  47 :   0.3333 0.1333 0.0667  plane waves:   25374
 k-point  48 :   0.4000 0.1333 0.0667  plane waves:   25398
 k-point  49 :   0.4667 0.1333 0.0667  plane waves:   25396
 k-point  50 :   0.2000 0.2000 0.0667  plane waves:   25357
 k-point  51 :   0.2667 0.2000 0.0667  plane waves:   25379
 k-point  52 :   0.3333 0.2000 0.0667  plane waves:   25374
 k-point  53 :   0.4000 0.2000 0.0667  plane waves:   25379
 k-point  54 :   0.4667 0.2000 0.0667  plane waves:   25398
 k-point  55 :   0.2667 0.2667 0.0667  plane waves:   25387
 k-point  56 :   0.3333 0.2667 0.0667  plane waves:   25391
 k-point  57 :   0.4000 0.2667 0.0667  plane waves:   25384
 k-point  58 :   0.4667 0.2667 0.0667  plane waves:   25393
 k-point  59 :   0.3333 0.3333 0.0667  plane waves:   25395
 k-point  60 :   0.4000 0.3333 0.0667  plane waves:   25408
 k-point  61 :   0.4667 0.3333 0.0667  plane waves:   25383
 k-point  62 :   0.4000 0.4000 0.0667  plane waves:   25403
 k-point  63 :   0.4667 0.4000 0.0667  plane waves:   25410
 k-point  64 :   0.4667 0.4667 0.0667  plane waves:   25414
 k-point  65 :   0.1333 0.1333 0.1333  plane waves:   25374
 k-point  66 :   0.2000 0.1333 0.1333  plane waves:   25380
 k-point  67 :   0.2667 0.1333 0.1333  plane waves:   25393
 k-point  68 :   0.3333 0.1333 0.1333  plane waves:   25395
 k-point  69 :   0.4000 0.1333 0.1333  plane waves:   25388
 k-point  70 :   0.4667 0.1333 0.1333  plane waves:   25390
 k-point  71 :   0.2000 0.2000 0.1333  plane waves:   25381
 k-point  72 :   0.2667 0.2000 0.1333  plane waves:   25388
 k-point  73 :   0.3333 0.2000 0.1333  plane waves:   25381
 k-point  74 :   0.4000 0.2000 0.1333  plane waves:   25386
 k-point  75 :   0.4667 0.2000 0.1333  plane waves:   25399
 k-point  76 :   0.2667 0.2667 0.1333  plane waves:   25383
 k-point  77 :   0.3333 0.2667 0.1333  plane waves:   25390
 k-point  78 :   0.4000 0.2667 0.1333  plane waves:   25395
 k-point  79 :   0.4667 0.2667 0.1333  plane waves:   25381
 k-point  80 :   0.3333 0.3333 0.1333  plane waves:   25390
 k-point  81 :   0.4000 0.3333 0.1333  plane waves:   25388
 k-point  82 :   0.4667 0.3333 0.1333  plane waves:   25390
 k-point  83 :   0.4000 0.4000 0.1333  plane waves:   25387
 k-point  84 :   0.4667 0.4000 0.1333  plane waves:   25395
 k-point  85 :   0.4667 0.4667 0.1333  plane waves:   25408
 k-point  86 :   0.2000 0.2000 0.2000  plane waves:   25374
 k-point  87 :   0.2667 0.2000 0.2000  plane waves:   25380
 k-point  88 :   0.3333 0.2000 0.2000  plane waves:   25383
 k-point  89 :   0.4000 0.2000 0.2000  plane waves:   25399
 k-point  90 :   0.4667 0.2000 0.2000  plane waves:   25374
 k-point  91 :   0.2667 0.2667 0.2000  plane waves:   25393
 k-point  92 :   0.3333 0.2667 0.2000  plane waves:   25381
 k-point  93 :   0.4000 0.2667 0.2000  plane waves:   25384
 k-point  94 :   0.4667 0.2667 0.2000  plane waves:   25386
 k-point  95 :   0.3333 0.3333 0.2000  plane waves:   25401
 k-point  96 :   0.4000 0.3333 0.2000  plane waves:   25392
 k-point  97 :   0.4667 0.3333 0.2000  plane waves:   25374
 k-point  98 :   0.4000 0.4000 0.2000  plane waves:   25385
 k-point  99 :   0.4667 0.4000 0.2000  plane waves:   25392
 k-point 100 :   0.4667 0.4667 0.2000  plane waves:   25408
 k-point 101 :   0.2667 0.2667 0.2667  plane waves:   25368
 k-point 102 :   0.3333 0.2667 0.2667  plane waves:   25386
 k-point 103 :   0.4000 0.2667 0.2667  plane waves:   25369
 k-point 104 :   0.4667 0.2667 0.2667  plane waves:   25366
 k-point 105 :   0.3333 0.3333 0.2667  plane waves:   25367
 k-point 106 :   0.4000 0.3333 0.2667  plane waves:   25393
 k-point 107 :   0.4667 0.3333 0.2667  plane waves:   25377
 k-point 108 :   0.4000 0.4000 0.2667  plane waves:   25388
 k-point 109 :   0.4667 0.4000 0.2667  plane waves:   25390
 k-point 110 :   0.4667 0.4667 0.2667  plane waves:   25379
 k-point 111 :   0.3333 0.3333 0.3333  plane waves:   25329
 k-point 112 :   0.4000 0.3333 0.3333  plane waves:   25386
 k-point 113 :   0.4667 0.3333 0.3333  plane waves:   25388
 k-point 114 :   0.4000 0.4000 0.3333  plane waves:   25375
 k-point 115 :   0.4667 0.4000 0.3333  plane waves:   25376
 k-point 116 :   0.4667 0.4667 0.3333  plane waves:   25389
 k-point 117 :   0.4000 0.4000 0.4000  plane waves:   25389
 k-point 118 :   0.4667 0.4000 0.4000  plane waves:   25385
 k-point 119 :   0.4667 0.4667 0.4000  plane waves:   25399
 k-point 120 :   0.4667 0.4667 0.4667  plane waves:   25383

 maximum and minimum number of plane-waves per node :     25441    25329

 maximum number of plane-waves:     25441
 maximum index in each direction: 
   IXMAX=   18   IYMAX=   18   IZMAX=   18
   IXMIN=  -18   IYMIN=  -18   IZMIN=  -18


 serial   3D FFT for wavefunctions
 parallel 3D FFT for charge:
    minimum data exchange during FFTs selected (reduces bandwidth)


 total amount of memory used by VASP MPI-rank0   594088. kBytes
=======================================================================

   base      :      30000. kBytes
   nonl-proj :     195793. kBytes
   fftplans  :      48668. kBytes
   grid      :      75314. kBytes
   one-center:          3. kBytes
   wavefun   :     244310. kBytes

     INWAV:  cpu time    0.0000: real time    0.0001
 Broyden mixing: mesh for mixing (old mesh)
   NGX = 37   NGY = 37   NGZ = 37
  (NGX  =112   NGY  =112   NGZ  =112)
  gives a total of  50653 points

 initial charge density was supplied:
 charge density of overlapping atoms calculated
 number of electron       2.0000000 magnetization 
 keeping initial charge density in first step


--------------------------------------------------------------------------------------------------------


 Maximum index for augmentation-charges         5743 (set IRDMAX)


--------------------------------------------------------------------------------------------------------


 First call to EWALD:  gamma=   0.177
 Maximum number of real-space cells 3x 3x 3
 Maximum number of reciprocal cells 3x 3x 3

    FEWALD:  cpu time    0.0007: real time    0.0007


--------------------------------------- Iteration      1(   1)  ---------------------------------------


    POTLOK:  cpu time    0.9894: real time    0.9960
    SETDIJ:  cpu time    0.0020: real time    0.0051
     EDDAV:  cpu time   20.3912: real time   20.5556
       DOS:  cpu time    0.0048: real time    0.0049
    --------------------------------------------
      LOOP:  cpu time   21.3874: real time   21.5617

 eigenvalue-minimisations  :  1200
 total energy-change (2. order) : 0.3631178E+01  (-0.2581534E+02)
 number of electron       2.0000000 magnetization 
 augmentation part        2.0000000 magnetization 

 Free energy of the ion-electron system (eV)
  ---------------------------------------------------
  alpha Z        PSCENC =         0.01746910
  Ewald energy   TEWEN  =        -8.17129600
  -Hartree energ DENC   =       -11.04779190
  -exchange      EXHF   =         0.00000000
  -V(xc)+E(xc)   XCENC  =         2.02396582
  PAW double counting   =        15.25623133      -14.62257617
  entropy T*S    EENTRO =        -0.00149894
  eigenvalues    EBANDS =        -7.30254913
  atomic energy  EATOM  =        27.47922402
  Solvation  Ediel_sol  =         0.00000000
  ---------------------------------------------------
  free energy    TOTEN  =         3.63117813 eV

  energy without entropy =        3.63267707  energy(sigma->0) =        3.63192760


--------------------------------------------------------------------------------------------------------




--------------------------------------- Iteration      1(   2)  ---------------------------------------


     EDDAV:  cpu time   30.4007: real time   30.6195
       DOS:  cpu time    0.0053: real time    0.0054
    --------------------------------------------
      LOOP:  cpu time   30.4060: real time   30.6249

 eigenvalue-minimisations  :  2070
 total energy-change (2. order) :-0.3480671E+01  (-0.3472415E+01)
 number of electron       2.0000000 magnetization 
 augmentation part        2.0000000 magnetization 

 Free energy of the ion-electron system (eV)
  ---------------------------------------------------
  alpha Z        PSCENC =         0.01746910
  Ewald energy   TEWEN  =        -8.17129600
  -Hartree energ DENC   =       -11.04779190
  -exchange      EXHF   =         0.00000000
  -V(xc)+E(xc)   XCENC  =         2.02396582
  PAW double counting   =        15.25623133      -14.62257617
  entropy T*S    EENTRO =        -0.00000000
  eigenvalues    EBANDS =       -10.78471902
  atomic energy  EATOM  =        27.47922402
  Solvation  Ediel_sol  =         0.00000000
  ---------------------------------------------------
  free energy    TOTEN  =         0.15050718 eV

  energy without entropy =        0.15050718  energy(sigma->0) =        0.15050718


--------------------------------------------------------------------------------------------------------




--------------------------------------- Iteration      1(   3)  ---------------------------------------


     EDDAV:  cpu time   26.7587: real time   26.9382
       DOS:  cpu time    0.0053: real time    0.0054
    --------------------------------------------
      LOOP:  cpu time   26.7640: real time   26.9436

 eigenvalue-minimisations  :  1805
 total energy-change (2. order) :-0.1883224E+00  (-0.1883224E+00)
 number of electron       2.0000000 magnetization 
 augmentation part        2.0000000 magnetization 

 Free energy of the ion-electron system (eV)
  ---------------------------------------------------
  alpha Z        PSCENC =         0.01746910
  Ewald energy   TEWEN  =        -8.17129600
  -Hartree energ DENC   =       -11.04779190
  -exchange      EXHF   =         0.00000000
  -V(xc)+E(xc)   XCENC  =         2.02396582
  PAW double counting   =        15.25623133      -14.62257617
  entropy T*S    EENTRO =        -0.00000000
  eigenvalues    EBANDS =       -10.97304146
  atomic energy  EATOM  =        27.47922402
  Solvation  Ediel_sol  =         0.00000000
  ---------------------------------------------------
  free energy    TOTEN  =        -0.03781526 eV

  energy without entropy =       -0.03781526  energy(sigma->0) =       -0.03781526


--------------------------------------------------------------------------------------------------------




--------------------------------------- Iteration      1(   4)  ---------------------------------------


     EDDAV:  cpu time   21.3478: real time   21.4971
       DOS:  cpu time    0.0055: real time    0.0056
    --------------------------------------------
      LOOP:  cpu time   21.3533: real time   21.5026

 eigenvalue-minimisations  :  1255
 total energy-change (2. order) :-0.5768845E-03  (-0.5768845E-03)
 number of electron       2.0000000 magnetization 
 augmentation part        2.0000000 magnetization 

 Free energy of the ion-electron system (eV)
  ---------------------------------------------------
  alpha Z        PSCENC =         0.01746910
  Ewald energy   TEWEN  =        -8.17129600
  -Hartree energ DENC   =       -11.04779190
  -exchange      EXHF   =         0.00000000
  -V(xc)+E(xc)   XCENC  =         2.02396582
  PAW double counting   =        15.25623133      -14.62257617
  entropy T*S    EENTRO =        -0.00000000
  eigenvalues    EBANDS =       -10.97361835
  atomic energy  EATOM  =        27.47922402
  Solvation  Ediel_sol  =         0.00000000
  ---------------------------------------------------
  free energy    TOTEN  =        -0.03839215 eV

  energy without entropy =       -0.03839215  energy(sigma->0) =       -0.03839215


--------------------------------------------------------------------------------------------------------




--------------------------------------- Iteration      1(   5)  ---------------------------------------


     EDDAV:  cpu time   24.7658: real time   24.9221
       DOS:  cpu time    0.0053: real time    0.0054
    CHARGE:  cpu time    0.5797: real time    0.5827
    MIXING:  cpu time    0.0313: real time    0.0315
    --------------------------------------------
      LOOP:  cpu time   25.3822: real time   25.5417

 eigenvalue-minimisations  :  1530
 total energy-change (2. order) :-0.9564881E-05  (-0.9564933E-05)
 number of electron       1.9999999 magnetization 
 augmentation part       -0.0894838 magnetization 

 Broyden mixing:
  rms(total) = 0.64323E-03    rms(broyden)= 0.63118E-03
  rms(prec ) = 0.10760E-02
  weight for this iteration     100.00

 Free energy of the ion-electron system (eV)
  ---------------------------------------------------
  alpha Z        PSCENC =         0.01746910
  Ewald energy   TEWEN  =        -8.17129600
  -Hartree energ DENC   =       -11.04779190
  -exchange      EXHF   =         0.00000000
  -V(xc)+E(xc)   XCENC  =         2.02396582
  PAW double counting   =        15.25623133      -14.62257617
  entropy T*S    EENTRO =        -0.00000000
  eigenvalues    EBANDS =       -10.97362791
  atomic energy  EATOM  =        27.47922402
  Solvation  Ediel_sol  =         0.00000000
  ---------------------------------------------------
  free energy    TOTEN  =        -0.03840171 eV

  energy without entropy =       -0.03840171  energy(sigma->0) =       -0.03840171


--------------------------------------------------------------------------------------------------------




--------------------------------------- Iteration      1(   6)  ---------------------------------------


    POTLOK:  cpu time    1.0272: real time    1.0329
    SETDIJ:  cpu time    0.0021: real time    0.0021
     EDDAV:  cpu time   24.2026: real time   24.3596
       DOS:  cpu time    0.0052: real time    0.0053
    CHARGE:  cpu time    0.5978: real time    0.6011
    MIXING:  cpu time    0.0334: real time    0.0337
    --------------------------------------------
      LOOP:  cpu time   25.8683: real time   26.0347

 eigenvalue-minimisations  :  1450
 total energy-change (2. order) :-0.1752068E-05  (-0.2140607E-06)
 number of electron       1.9999999 magnetization 
 augmentation part       -0.0894694 magnetization 

 Broyden mixing:
  rms(total) = 0.40373E-03    rms(broyden)= 0.40297E-03
  rms(prec ) = 0.73391E-03
  weight for this iteration     100.00

 eigenvalues of (default mixing * dielectric matrix)
  average eigenvalue GAMMA=   2.6372
  2.6372

 Free energy of the ion-electron system (eV)
  ---------------------------------------------------
  alpha Z        PSCENC =         0.01746910
  Ewald energy   TEWEN  =        -8.17129600
  -Hartree energ DENC   =       -11.05168852
  -exchange      EXHF   =         0.00000000
  -V(xc)+E(xc)   XCENC  =         2.02467533
  PAW double counting   =        15.26264400      -14.62903231
  entropy T*S    EENTRO =        -0.00000000
  eigenvalues    EBANDS =       -10.97039907
  atomic energy  EATOM  =        27.47922402
  Solvation  Ediel_sol  =         0.00000000
  ---------------------------------------------------
  free energy    TOTEN  =        -0.03840347 eV

  energy without entropy =       -0.03840346  energy(sigma->0) =       -0.03840347


--------------------------------------------------------------------------------------------------------




--------------------------------------- Iteration      1(   7)  ---------------------------------------


    POTLOK:  cpu time    1.0387: real time    1.0581
    SETDIJ:  cpu time    0.0022: real time    0.0022
     EDDAV:  cpu time   26.1949: real time   26.3753
       DOS:  cpu time    0.0055: real time    0.0056
    CHARGE:  cpu time    0.5580: real time    0.5611
    MIXING:  cpu time    0.0336: real time    0.0338
    --------------------------------------------
      LOOP:  cpu time   27.8328: real time   28.0359

 eigenvalue-minimisations  :  1600
 total energy-change (2. order) : 0.2324611E-05  (-0.2727472E-06)
 number of electron       1.9999999 magnetization 
 augmentation part       -0.0894413 magnetization 

 Broyden mixing:
  rms(total) = 0.82289E-04    rms(broyden)= 0.82142E-04
  rms(prec ) = 0.19492E-03
  weight for this iteration     100.00

 eigenvalues of (default mixing * dielectric matrix)
  average eigenvalue GAMMA=   3.0754
  2.7630  3.3877

 Free energy of the ion-electron system (eV)
  ---------------------------------------------------
  alpha Z        PSCENC =         0.01746910
  Ewald energy   TEWEN  =        -8.17129600
  -Hartree energ DENC   =       -11.05983414
  -exchange      EXHF   =         0.00000000
  -V(xc)+E(xc)   XCENC  =         2.02616067
  PAW double counting   =        15.27312731      -14.63956443
  entropy T*S    EENTRO =        -0.00000000
  eigenvalues    EBANDS =       -10.96368768
  atomic energy  EATOM  =        27.47922402
  Solvation  Ediel_sol  =         0.00000000
  ---------------------------------------------------
  free energy    TOTEN  =        -0.03840114 eV

  energy without entropy =       -0.03840114  energy(sigma->0) =       -0.03840114


--------------------------------------------------------------------------------------------------------




--------------------------------------- Iteration      1(   8)  ---------------------------------------


    POTLOK:  cpu time    1.0408: real time    1.0467
    SETDIJ:  cpu time    0.0022: real time    0.0022
     EDDAV:  cpu time   21.6562: real time   21.7937
       DOS:  cpu time    0.0052: real time    0.0053
    CHARGE:  cpu time    0.5825: real time    0.5860
    MIXING:  cpu time    0.0359: real time    0.0361
    --------------------------------------------
      LOOP:  cpu time   23.3229: real time   23.4700

 eigenvalue-minimisations  :  1230
 total energy-change (2. order) :-0.3274874E-06  (-0.5677191E-07)
 number of electron       1.9999999 magnetization 
 augmentation part       -0.0894368 magnetization 

 Broyden mixing:
  rms(total) = 0.27887E-04    rms(broyden)= 0.27870E-04
  rms(prec ) = 0.71412E-04
  weight for this iteration     100.00

 eigenvalues of (default mixing * dielectric matrix)
  average eigenvalue GAMMA=   2.5587
  1.3678  3.5137  2.7947

 Free energy of the ion-electron system (eV)
  ---------------------------------------------------
  alpha Z        PSCENC =         0.01746910
  Ewald energy   TEWEN  =        -8.17129600
  -Hartree energ DENC   =       -11.06211677
  -exchange      EXHF   =         0.00000000
  -V(xc)+E(xc)   XCENC  =         2.02655272
  PAW double counting   =        15.26647261      -14.63281853
  entropy T*S    EENTRO =        -0.00000000
  eigenvalues    EBANDS =       -10.96188861
  atomic energy  EATOM  =        27.47922402
  Solvation  Ediel_sol  =         0.00000000
  ---------------------------------------------------
  free energy    TOTEN  =        -0.03840147 eV

  energy without entropy =       -0.03840147  energy(sigma->0) =       -0.03840147


--------------------------------------------------------------------------------------------------------




--------------------------------------- Iteration      1(   9)  ---------------------------------------


    POTLOK:  cpu time    1.0340: real time    1.0415
    SETDIJ:  cpu time    0.0020: real time    0.0020
     EDDAV:  cpu time   21.1178: real time   21.2570
       DOS:  cpu time    0.0053: real time    0.0054
    CHARGE:  cpu time    0.5518: real time    0.5542
    MIXING:  cpu time    0.0367: real time    0.0369
    --------------------------------------------
      LOOP:  cpu time   22.7476: real time   22.8970

 eigenvalue-minimisations  :  1200
 total energy-change (2. order) :-0.1174727E-05  (-0.4341591E-08)
 number of electron       1.9999999 magnetization 
 augmentation part       -0.0894367 magnetization 

 Broyden mixing:
  rms(total) = 0.18086E-04    rms(broyden)= 0.18084E-04
  rms(prec ) = 0.50204E-04
  weight for this iteration     100.00

 eigenvalues of (default mixing * dielectric matrix)
  average eigenvalue GAMMA=   2.9275
  0.9977  4.9646  3.1878  2.5599

 Free energy of the ion-electron system (eV)
  ---------------------------------------------------
  alpha Z        PSCENC =         0.01746910
  Ewald energy   TEWEN  =        -8.17129600
  -Hartree energ DENC   =       -11.06226165
  -exchange      EXHF   =         0.00000000
  -V(xc)+E(xc)   XCENC  =         2.02656428
  PAW double counting   =        15.26630492      -14.63266437
  entropy T*S    EENTRO =        -0.00000000
  eigenvalues    EBANDS =       -10.96174294
  atomic energy  EATOM  =        27.47922402
  Solvation  Ediel_sol  =         0.00000000
  ---------------------------------------------------
  free energy    TOTEN  =        -0.03840264 eV

  energy without entropy =       -0.03840264  energy(sigma->0) =       -0.03840264


--------------------------------------------------------------------------------------------------------




--------------------------------------- Iteration      1(  10)  ---------------------------------------


    POTLOK:  cpu time    1.0229: real time    1.0286
    SETDIJ:  cpu time    0.0023: real time    0.0023
     EDDAV:  cpu time   21.1197: real time   21.2448
       DOS:  cpu time    0.0052: real time    0.0053
    CHARGE:  cpu time    0.5876: real time    0.5906
    MIXING:  cpu time    0.0398: real time    0.0400
    --------------------------------------------
      LOOP:  cpu time   22.7774: real time   22.9115

 eigenvalue-minimisations  :  1200
 total energy-change (2. order) :-0.1629275E-05  (-0.1590096E-07)
 number of electron       1.9999999 magnetization 
 augmentation part       -0.0894358 magnetization 

 Broyden mixing:
  rms(total) = 0.82043E-05    rms(broyden)= 0.82042E-05
  rms(prec ) = 0.21005E-04
  weight for this iteration     100.00

 eigenvalues of (default mixing * dielectric matrix)
  average eigenvalue GAMMA=   3.3244
  6.2752  0.9917  4.1218  2.8190  2.4143

 Free energy of the ion-electron system (eV)
  ---------------------------------------------------
  alpha Z        PSCENC =         0.01746910
  Ewald energy   TEWEN  =        -8.17129600
  -Hartree energ DENC   =       -11.06262306
  -exchange      EXHF   =         0.00000000
  -V(xc)+E(xc)   XCENC  =         2.02660247
  PAW double counting   =        15.26651894      -14.63290327
  entropy T*S    EENTRO =        -0.00000000
  eigenvalues    EBANDS =       -10.96139647
  atomic energy  EATOM  =        27.47922402
  Solvation  Ediel_sol  =         0.00000000
  ---------------------------------------------------
  free energy    TOTEN  =        -0.03840427 eV

  energy without entropy =       -0.03840427  energy(sigma->0) =       -0.03840427


--------------------------------------------------------------------------------------------------------




--------------------------------------- Iteration      1(  11)  ---------------------------------------


    POTLOK:  cpu time    1.0434: real time    1.0491
    SETDIJ:  cpu time    0.0021: real time    0.0022
     EDDAV:  cpu time   22.1892: real time   22.3216
       DOS:  cpu time    0.0053: real time    0.0054
    CHARGE:  cpu time    0.5868: real time    0.5899
    MIXING:  cpu time    0.0405: real time    0.0407
    --------------------------------------------
      LOOP:  cpu time   23.8674: real time   24.0089

 eigenvalue-minimisations  :  1280
 total energy-change (2. order) :-0.8168236E-06  (-0.8202197E-08)
 number of electron       1.9999999 magnetization 
 augmentation part       -0.0894361 magnetization 

 Broyden mixing:
  rms(total) = 0.31779E-05    rms(broyden)= 0.31779E-05
  rms(prec ) = 0.76485E-05
  weight for this iteration     100.00

 eigenvalues of (default mixing * dielectric matrix)
  average eigenvalue GAMMA=   3.0320
  6.7648  4.1024  2.9340  2.5262  1.0016  0.8631

 Free energy of the ion-electron system (eV)
  ---------------------------------------------------
  alpha Z        PSCENC =         0.01746910
  Ewald energy   TEWEN  =        -8.17129600
  -Hartree energ DENC   =       -11.06266246
  -exchange      EXHF   =         0.00000000
  -V(xc)+E(xc)   XCENC  =         2.02660107
  PAW double counting   =        15.26679106      -14.63316350
  entropy T*S    EENTRO =        -0.00000000
  eigenvalues    EBANDS =       -10.96136838
  atomic energy  EATOM  =        27.47922402
  Solvation  Ediel_sol  =         0.00000000
  ---------------------------------------------------
  free energy    TOTEN  =        -0.03840509 eV

  energy without entropy =       -0.03840509  energy(sigma->0) =       -0.03840509


--------------------------------------------------------------------------------------------------------




--------------------------------------- Iteration      1(  12)  ---------------------------------------


    POTLOK:  cpu time    1.0413: real time    1.0475
    SETDIJ:  cpu time    0.0022: real time    0.0022
     EDDAV:  cpu time   27.3258: real time   27.5095
       DOS:  cpu time    0.0052: real time    0.0053
    CHARGE:  cpu time    0.5621: real time    0.5648
    MIXING:  cpu time    0.0404: real time    0.0406
    --------------------------------------------
      LOOP:  cpu time   28.9770: real time   29.1698

 eigenvalue-minimisations  :  1780
 total energy-change (2. order) :-0.1503893E-06  (-0.3618851E-09)
 number of electron       1.9999999 magnetization 
 augmentation part       -0.0894360 magnetization 

 Broyden mixing:
  rms(total) = 0.23321E-05    rms(broyden)= 0.23321E-05
  rms(prec ) = 0.45286E-05
  weight for this iteration     100.00

 eigenvalues of (default mixing * dielectric matrix)
  average eigenvalue GAMMA=   3.4725
  8.1725  5.2179  3.5489  2.9084  2.4962  0.9958  0.9679

 Free energy of the ion-electron system (eV)
  ---------------------------------------------------
  alpha Z        PSCENC =         0.01746910
  Ewald energy   TEWEN  =        -8.17129600
  -Hartree energ DENC   =       -11.06272133
  -exchange      EXHF   =         0.00000000
  -V(xc)+E(xc)   XCENC  =         2.02661186
  PAW double counting   =        15.26665946      -14.63302882
  entropy T*S    EENTRO =        -0.00000000
  eigenvalues    EBANDS =       -10.96132352
  atomic energy  EATOM  =        27.47922402
  Solvation  Ediel_sol  =         0.00000000
  ---------------------------------------------------
  free energy    TOTEN  =        -0.03840524 eV

  energy without entropy =       -0.03840524  energy(sigma->0) =       -0.03840524


--------------------------------------------------------------------------------------------------------




--------------------------------------- Iteration      1(  13)  ---------------------------------------


    POTLOK:  cpu time    1.0241: real time    1.0301
    SETDIJ:  cpu time    0.0021: real time    0.0021
     EDDAV:  cpu time   25.4548: real time   25.6086
       DOS:  cpu time    0.0053: real time    0.0054
    CHARGE:  cpu time    0.5806: real time    0.5838
    MIXING:  cpu time    0.0423: real time    0.0426
    --------------------------------------------
      LOOP:  cpu time   27.1092: real time   27.2726

 eigenvalue-minimisations  :  1525
 total energy-change (2. order) :-0.1674472E-06  (-0.4998697E-09)
 number of electron       1.9999999 magnetization 
 augmentation part       -0.0894359 magnetization 

 Broyden mixing:
  rms(total) = 0.75587E-06    rms(broyden)= 0.75586E-06
  rms(prec ) = 0.13565E-05
  weight for this iteration     100.00

 eigenvalues of (default mixing * dielectric matrix)
  average eigenvalue GAMMA=   3.1200
  8.2524  5.1514  3.6004  2.9282  2.4909  0.9973  0.9203  0.6190

 Free energy of the ion-electron system (eV)
  ---------------------------------------------------
  alpha Z        PSCENC =         0.01746910
  Ewald energy   TEWEN  =        -8.17129600
  -Hartree energ DENC   =       -11.06271001
  -exchange      EXHF   =         0.00000000
  -V(xc)+E(xc)   XCENC  =         2.02660916
  PAW double counting   =        15.26653526      -14.63291005
  entropy T*S    EENTRO =        -0.00000000
  eigenvalues    EBANDS =       -10.96132689
  atomic energy  EATOM  =        27.47922402
  Solvation  Ediel_sol  =         0.00000000
  ---------------------------------------------------
  free energy    TOTEN  =        -0.03840541 eV

  energy without entropy =       -0.03840541  energy(sigma->0) =       -0.03840541


--------------------------------------------------------------------------------------------------------




--------------------------------------- Iteration      1(  14)  ---------------------------------------


    POTLOK:  cpu time    1.0492: real time    1.0551
    SETDIJ:  cpu time    0.0023: real time    0.0023
     EDDAV:  cpu time   25.0790: real time   25.2275
       DOS:  cpu time    0.0052: real time    0.0053
    --------------------------------------------
      LOOP:  cpu time   26.1358: real time   26.2902

 eigenvalue-minimisations  :  1585
 total energy-change (2. order) :-0.8157912E-08  (-0.1156038E-10)
 number of electron       1.9999999 magnetization 
 augmentation part       -0.0894359 magnetization 

 Free energy of the ion-electron system (eV)
  ---------------------------------------------------
  alpha Z        PSCENC =         0.01746910
  Ewald energy   TEWEN  =        -8.17129600
  -Hartree energ DENC   =       -11.06270385
  -exchange      EXHF   =         0.00000000
  -V(xc)+E(xc)   XCENC  =         2.02660830
  PAW double counting   =        15.26653457      -14.63290871
  entropy T*S    EENTRO =        -0.00000000
  eigenvalues    EBANDS =       -10.96133284
  atomic energy  EATOM  =        27.47922402
  Solvation  Ediel_sol  =         0.00000000
  ---------------------------------------------------
  free energy    TOTEN  =        -0.03840541 eV

  energy without entropy =       -0.03840541  energy(sigma->0) =       -0.03840541


--------------------------------------------------------------------------------------------------------




 average (electrostatic) potential at core
  the test charge radii are     0.9943
  (the norm of the test charge is              1.0000)
       1 -45.4132



 E-fermi :  -4.5476     XC(G=0):  -0.8224     alpha+bet : -0.1273

 Fermi energy:        -4.5475582094

 k-point     1 :       0.0000    0.0000    0.0000
  band No.  band energies     occupation 
      1      -5.4817      2.00000
      2      -1.8782      0.00000
      3      -1.8782      0.00000
      4      -1.8782      0.00000
      5      -0.2397      0.00000

 k-point     2 :       0.0667    0.0000    0.0000
  band No.  band energies     occupation 
      1      -5.4816      2.00000
      2      -1.8795      0.00000
      3      -1.8781      0.00000
      4      -1.8781      0.00000
      5      -0.2315      0.00000

 k-point     3 :       0.1333    0.0000    0.0000
  band No.  band energies     occupation 
      1      -5.4815      2.00000
      2      -1.8831      0.00000
      3      -1.8777      0.00000
      4      -1.8777      0.00000
      5      -0.2074      0.00000

 k-point     4 :       0.2000    0.0000    0.0000
  band No.  band energies     occupation 
      1      -5.4814      2.00000
      2      -1.8885      0.00000
      3      -1.8773      0.00000
      4      -1.8773      0.00000
      5      -0.1681      0.00000

 k-point     5 :       0.2667    0.0000    0.0000
  band No.  band energies     occupation 
      1      -5.4813      2.00000
      2      -1.8945      0.00000
      3      -1.8768      0.00000
      4      -1.8768      0.00000
      5      -0.1149      0.00000

 k-point     6 :       0.3333    0.0000    0.0000
  band No.  band energies     occupation 
      1      -5.4812      2.00000
      2      -1.9002      0.00000
      3      -1.8762      0.00000
      4      -1.8762      0.00000
      5      -0.0501      0.00000

 k-point     7 :       0.4000    0.0000    0.0000
  band No.  band energies     occupation 
      1      -5.4811      2.00000
      2      -1.9046      0.00000
      3      -1.8758      0.00000
      4      -1.8758      0.00000
      5       0.0221      0.00000

 k-point     8 :       0.4667    0.0000    0.0000
  band No.  band energies     occupation 
      1      -5.4810      2.00000
      2      -1.9070      0.00000
      3      -1.8756      0.00000
      4      -1.8756      0.00000
      5       0.0860      0.00000

 k-point     9 :       0.0667    0.0667    0.0000
  band No.  band energies     occupation 
      1      -5.4816      2.00000
      2      -1.8795      0.00000
      3      -1.8793      0.00000
      4      -1.8780      0.00000
      5      -0.2234      0.00000

 k-point    10 :       0.1333    0.0667    0.0000
  band No.  band energies     occupation 
      1      -5.4815      2.00000
      2      -1.8830      0.00000
      3      -1.8790      0.00000
      4      -1.8776      0.00000
      5      -0.1993      0.00000

 k-point    11 :       0.2000    0.0667    0.0000
  band No.  band energies     occupation 
      1      -5.4814      2.00000
      2      -1.8883      0.00000
      3      -1.8786      0.00000
      4      -1.8772      0.00000
      5      -0.1600      0.00000

 k-point    12 :       0.2667    0.0667    0.0000
  band No.  band energies     occupation 
      1      -5.4813      2.00000
      2      -1.8944      0.00000
      3      -1.8780      0.00000
      4      -1.8766      0.00000
      5      -0.1069      0.00000

 k-point    13 :       0.3333    0.0667    0.0000
  band No.  band energies     occupation 
      1      -5.4811      2.00000
      2      -1.9001      0.00000
      3      -1.8775      0.00000
      4      -1.8761      0.00000
      5      -0.0421      0.00000

 k-point    14 :       0.4000    0.0667    0.0000
  band No.  band energies     occupation 
      1      -5.4810      2.00000
      2      -1.9044      0.00000
      3      -1.8771      0.00000
      4      -1.8757      0.00000
      5       0.0302      0.00000

 k-point    15 :       0.4667    0.0667    0.0000
  band No.  band energies     occupation 
      1      -5.4810      2.00000
      2      -1.9068      0.00000
      3      -1.8768      0.00000
      4      -1.8755      0.00000
      5       0.0947      0.00000

 k-point    16 :       0.1333    0.1333    0.0000
  band No.  band energies     occupation 
      1      -5.4814      2.00000
      2      -1.8830      0.00000
      3      -1.8823      0.00000
      4      -1.8773      0.00000
      5      -0.1752      0.00000

 k-point    17 :       0.2000    0.1333    0.0000
  band No.  band energies     occupation 
      1      -5.4813      2.00000
      2      -1.8880      0.00000
      3      -1.8821      0.00000
      4      -1.8769      0.00000
      5      -0.1361      0.00000

 k-point    18 :       0.2667    0.1333    0.0000
  band No.  band energies     occupation 
      1      -5.4812      2.00000
      2      -1.8939      0.00000
      3      -1.8815      0.00000
      4      -1.8763      0.00000
      5      -0.0831      0.00000

 k-point    19 :       0.3333    0.1333    0.0000
  band No.  band energies     occupation 
      1      -5.4810      2.00000
      2      -1.8996      0.00000
      3      -1.8809      0.00000
      4      -1.8758      0.00000
      5      -0.0183      0.00000

 k-point    20 :       0.4000    0.1333    0.0000
  band No.  band energies     occupation 
      1      -5.4809      2.00000
      2      -1.9039      0.00000
      3      -1.8805      0.00000
      4      -1.8754      0.00000
      5       0.0545      0.00000

 k-point    21 :       0.4667    0.1333    0.0000
  band No.  band energies     occupation 
      1      -5.4809      2.00000
      2      -1.9063      0.00000
      3      -1.8803      0.00000
      4      -1.8752      0.00000
      5       0.1205      0.00000

 k-point    22 :       0.2000    0.2000    0.0000
  band No.  band energies     occupation 
      1      -5.4812      2.00000
      2      -1.8879      0.00000
      3      -1.8868      0.00000
      4      -1.8764      0.00000
      5      -0.0971      0.00000

 k-point    23 :       0.2667    0.2000    0.0000
  band No.  band energies     occupation 
      1      -5.4811      2.00000
      2      -1.8933      0.00000
      3      -1.8866      0.00000
      4      -1.8759      0.00000
      5      -0.0443      0.00000

 k-point    24 :       0.3333    0.2000    0.0000
  band No.  band energies     occupation 
      1      -5.4809      2.00000
      2      -1.8989      0.00000
      3      -1.8860      0.00000
      4      -1.8754      0.00000
      5       0.0206      0.00000

 k-point    25 :       0.4000    0.2000    0.0000
  band No.  band energies     occupation 
      1      -5.4808      2.00000
      2      -1.9032      0.00000
      3      -1.8855      0.00000
      4      -1.8750      0.00000
      5       0.0939      0.00000

 k-point    26 :       0.4667    0.2000    0.0000
  band No.  band energies     occupation 
      1      -5.4808      2.00000
      2      -1.9055      0.00000
      3      -1.8852      0.00000
      4      -1.8748      0.00000
      5       0.1623      0.00000

 k-point    27 :       0.2667    0.2667    0.0000
  band No.  band energies     occupation 
      1      -5.4809      2.00000
[...]
      5       0.1547      0.00000

 k-point    71 :       0.2000    0.2000    0.1333
  band No.  band energies     occupation 
      1      -5.4811      2.00000
      2      -1.8875      0.00000
      3      -1.8863      0.00000
      4      -1.8811      0.00000
      5      -0.0655      0.00000

 k-point    72 :       0.2667    0.2000    0.1333
  band No.  band energies     occupation 
      1      -5.4810      2.00000
      2      -1.8927      0.00000
      3      -1.8861      0.00000
      4      -1.8805      0.00000
      5      -0.0128      0.00000

 k-point    73 :       0.3333    0.2000    0.1333
  band No.  band energies     occupation 
      1      -5.4808      2.00000
      2      -1.8982      0.00000
      3      -1.8855      0.00000
      4      -1.8800      0.00000
      5       0.0519      0.00000

 k-point    74 :       0.4000    0.2000    0.1333
  band No.  band energies     occupation 
      1      -5.4807      2.00000
      2      -1.9025      0.00000
      3      -1.8850      0.00000
      4      -1.8795      0.00000
      5       0.1257      0.00000

 k-point    75 :       0.4667    0.2000    0.1333
  band No.  band energies     occupation 
      1      -5.4807      2.00000
      2      -1.9048      0.00000
      3      -1.8848      0.00000
      4      -1.8793      0.00000
      5       0.1962      0.00000

 k-point    76 :       0.2667    0.2667    0.1333
  band No.  band energies     occupation 
      1      -5.4808      2.00000
      2      -1.8926      0.00000
      3      -1.8913      0.00000
      4      -1.8800      0.00000
      5       0.0396      0.00000

 k-point    77 :       0.3333    0.2667    0.1333
  band No.  band energies     occupation 
      1      -5.4807      2.00000
      2      -1.8974      0.00000
      3      -1.8912      0.00000
      4      -1.8794      0.00000
      5       0.1042      0.00000

 k-point    78 :       0.4000    0.2667    0.1333
  band No.  band energies     occupation 
      1      -5.4806      2.00000
      2      -1.9016      0.00000
      3      -1.8907      0.00000
      4      -1.8790      0.00000
      5       0.1785      0.00000

 k-point    79 :       0.4667    0.2667    0.1333
  band No.  band energies     occupation 
      1      -5.4805      2.00000
      2      -1.9039      0.00000
      3      -1.8904      0.00000
      4      -1.8788      0.00000
      5       0.2520      0.00000

 k-point    80 :       0.3333    0.3333    0.1333
  band No.  band energies     occupation 
      1      -5.4806      2.00000
      2      -1.8971      0.00000
      3      -1.8961      0.00000
      4      -1.8789      0.00000
      5       0.1688      0.00000

 k-point    81 :       0.4000    0.3333    0.1333
  band No.  band energies     occupation 
      1      -5.4805      2.00000
      2      -1.9008      0.00000
      3      -1.8960      0.00000
      4      -1.8785      0.00000
      5       0.2434      0.00000

 k-point    82 :       0.4667    0.3333    0.1333
  band No.  band energies     occupation 
      1      -5.4804      2.00000
      2      -1.9030      0.00000
      3      -1.8957      0.00000
      4      -1.8782      0.00000
      5       0.3201      0.00000

 k-point    83 :       0.4000    0.4000    0.1333
  band No.  band energies     occupation 
      1      -5.4804      2.00000
      2      -1.9003      0.00000
      3      -1.8999      0.00000
      4      -1.8780      0.00000
      5       0.3185      0.00000

 k-point    84 :       0.4667    0.4000    0.1333
  band No.  band energies     occupation 
      1      -5.4803      2.00000
      2      -1.9023      0.00000
      3      -1.8997      0.00000
      4      -1.8778      0.00000
      5       0.3977      0.00000

 k-point    85 :       0.4667    0.4667    0.1333
  band No.  band energies     occupation 
      1      -5.4802      2.00000
      2      -1.9020      0.00000
      3      -1.9019      0.00000
      4      -1.8776      0.00000
      5       0.4782      0.00000

 k-point    86 :       0.2000    0.2000    0.2000
  band No.  band energies     occupation 
      1      -5.4810      2.00000
      2      -1.8874      0.00000
      3      -1.8857      0.00000
      4      -1.8857      0.00000
      5      -0.0269      0.00000

 k-point    87 :       0.2667    0.2000    0.2000
  band No.  band energies     occupation 
      1      -5.4808      2.00000
      2      -1.8921      0.00000
      3      -1.8860      0.00000
      4      -1.8851      0.00000
      5       0.0255      0.00000

 k-point    88 :       0.3333    0.2000    0.2000
  band No.  band energies     occupation 
      1      -5.4807      2.00000
      2      -1.8975      0.00000
      3      -1.8854      0.00000
      4      -1.8845      0.00000
      5       0.0902      0.00000

 k-point    89 :       0.4000    0.2000    0.2000
  band No.  band energies     occupation 
      1      -5.4806      2.00000
      2      -1.9017      0.00000
      3      -1.8850      0.00000
      4      -1.8840      0.00000
      5       0.1644      0.00000

 k-point    90 :       0.4667    0.2000    0.2000
  band No.  band energies     occupation 
      1      -5.4805      2.00000
      2      -1.9040      0.00000
      3      -1.8847      0.00000
      4      -1.8837      0.00000
      5       0.2372      0.00000

 k-point    91 :       0.2667    0.2667    0.2000
  band No.  band energies     occupation 
      1      -5.4807      2.00000
      2      -1.8920      0.00000
      3      -1.8907      0.00000
      4      -1.8849      0.00000
      5       0.0776      0.00000

 k-point    92 :       0.3333    0.2667    0.2000
  band No.  band energies     occupation 
      1      -5.4806      2.00000
      2      -1.8968      0.00000
      3      -1.8906      0.00000
      4      -1.8843      0.00000
      5       0.1421      0.00000

 k-point    93 :       0.4000    0.2667    0.2000
  band No.  band energies     occupation 
      1      -5.4805      2.00000
      2      -1.9009      0.00000
      3      -1.8901      0.00000
      4      -1.8838      0.00000
      5       0.2166      0.00000

 k-point    94 :       0.4667    0.2667    0.2000
  band No.  band energies     occupation 
      1      -5.4804      2.00000
      2      -1.9031      0.00000
      3      -1.8898      0.00000
      4      -1.8836      0.00000
      5       0.2924      0.00000

 k-point    95 :       0.3333    0.3333    0.2000
  band No.  band energies     occupation 
      1      -5.4804      2.00000
      2      -1.8964      0.00000
      3      -1.8955      0.00000
      4      -1.8837      0.00000
      5       0.2063      0.00000

 k-point    96 :       0.4000    0.3333    0.2000
  band No.  band energies     occupation 
      1      -5.4803      2.00000
      2      -1.9001      0.00000
      3      -1.8953      0.00000
      4      -1.8832      0.00000
      5       0.2809      0.00000

 k-point    97 :       0.4667    0.3333    0.2000
  band No.  band energies     occupation 
      1      -5.4803      2.00000
      2      -1.9023      0.00000
      3      -1.8950      0.00000
      4      -1.8830      0.00000
      5       0.3598      0.00000

 k-point    98 :       0.4000    0.4000    0.2000
  band No.  band energies     occupation 
      1      -5.4802      2.00000
      2      -1.8996      0.00000
      3      -1.8992      0.00000
      4      -1.8828      0.00000
      5       0.3557      0.00000

 k-point    99 :       0.4667    0.4000    0.2000
  band No.  band energies     occupation 
      1      -5.4802      2.00000
      2      -1.9016      0.00000
      3      -1.8991      0.00000
      4      -1.8825      0.00000
      5       0.4369      0.00000

 k-point   100 :       0.4667    0.4667    0.2000
  band No.  band energies     occupation 
      1      -5.4801      2.00000
      2      -1.9013      0.00000
      3      -1.9012      0.00000
      4      -1.8823      0.00000
      5       0.5196      0.00000

 k-point   101 :       0.2667    0.2667    0.2667
  band No.  band energies     occupation 
      1      -5.4806      2.00000
      2      -1.8917      0.00000
      3      -1.8900      0.00000
      4      -1.8900      0.00000
      5       0.1293      0.00000

 k-point   102 :       0.3333    0.2667    0.2667
  band No.  band energies     occupation 
      1      -5.4804      2.00000
      2      -1.8960      0.00000
      3      -1.8904      0.00000
      4      -1.8894      0.00000
      5       0.1934      0.00000

 k-point   103 :       0.4000    0.2667    0.2667
  band No.  band energies     occupation 
      1      -5.4803      2.00000
      2      -1.9001      0.00000
      3      -1.8899      0.00000
      4      -1.8888      0.00000
      5       0.2681      0.00000

 k-point   104 :       0.4667    0.2667    0.2667
  band No.  band energies     occupation 
      1      -5.4803      2.00000
      2      -1.9023      0.00000
      3      -1.8896      0.00000
      4      -1.8886      0.00000
      5       0.3466      0.00000

 k-point   105 :       0.3333    0.3333    0.2667
  band No.  band energies     occupation 
      1      -5.4803      2.00000
      2      -1.8957      0.00000
      3      -1.8947      0.00000
      4      -1.8892      0.00000
      5       0.2571      0.00000

 k-point   106 :       0.4000    0.3333    0.2667
  band No.  band energies     occupation 
      1      -5.4802      2.00000
      2      -1.8993      0.00000
      3      -1.8946      0.00000
      4      -1.8887      0.00000
      5       0.3315      0.00000

 k-point   107 :       0.4667    0.3333    0.2667
  band No.  band energies     occupation 
      1      -5.4802      2.00000
      2      -1.9014      0.00000
      3      -1.8943      0.00000
      4      -1.8884      0.00000
      5       0.4125      0.00000

 k-point   108 :       0.4000    0.4000    0.2667
  band No.  band energies     occupation 
      1      -5.4801      2.00000
      2      -1.8988      0.00000
      3      -1.8984      0.00000
      4      -1.8882      0.00000
      5       0.4056      0.00000

 k-point   109 :       0.4667    0.4000    0.2667
  band No.  band energies     occupation 
      1      -5.4801      2.00000
      2      -1.9008      0.00000
      3      -1.8983      0.00000
      4      -1.8879      0.00000
      5       0.4881      0.00000

 k-point   110 :       0.4667    0.4667    0.2667
  band No.  band energies     occupation 
      1      -5.4800      2.00000
      2      -1.9005      0.00000
      3      -1.9004      0.00000
      4      -1.8876      0.00000
      5       0.5711      0.00000

 k-point   111 :       0.3333    0.3333    0.3333
  band No.  band energies     occupation 
      1      -5.4802      2.00000
      2      -1.8952      0.00000
      3      -1.8940      0.00000
      4      -1.8940      0.00000
      5       0.3199      0.00000

 k-point   112 :       0.4000    0.3333    0.3333
  band No.  band energies     occupation 
      1      -5.4801      2.00000
      2      -1.8985      0.00000
      3      -1.8942      0.00000
      4      -1.8935      0.00000
      5       0.3937      0.00000

 k-point   113 :       0.4667    0.3333    0.3333
  band No.  band energies     occupation 
      1      -5.4800      2.00000
      2      -1.9006      0.00000
      3      -1.8939      0.00000
      4      -1.8932      0.00000
      5       0.4761      0.00000

 k-point   114 :       0.4000    0.4000    0.3333
  band No.  band energies     occupation 
      1      -5.4800      2.00000
      2      -1.8981      0.00000
      3      -1.8977      0.00000
      4      -1.8933      0.00000
      5       0.4665      0.00000

 k-point   115 :       0.4667    0.4000    0.3333
  band No.  band energies     occupation 
      1      -5.4799      2.00000
      2      -1.9000      0.00000
      3      -1.8975      0.00000
      4      -1.8930      0.00000
      5       0.5487      0.00000

 k-point   116 :       0.4667    0.4667    0.3333
  band No.  band energies     occupation 
      1      -5.4799      2.00000
      2      -1.8997      0.00000
      3      -1.8996      0.00000
      4      -1.8927      0.00000
      5       0.6288      0.00000

 k-point   117 :       0.4000    0.4000    0.4000
  band No.  band energies     occupation 
      1      -5.4799      2.00000
      2      -1.8976      0.00000
      3      -1.8971      0.00000
      4      -1.8971      0.00000
      5       0.5372      0.00000

 k-point   118 :       0.4667    0.4000    0.4000
  band No.  band energies     occupation 
      1      -5.4798      2.00000
      2      -1.8994      0.00000
      3      -1.8971      0.00000
      4      -1.8967      0.00000
      5       0.6168      0.00000

 k-point   119 :       0.4667    0.4667    0.4000
  band No.  band energies     occupation 
      1      -5.4798      2.00000
      2      -1.8991      0.00000
      3      -1.8990      0.00000
      4      -1.8966      0.00000
      5       0.6907      0.00000

 k-point   120 :       0.4667    0.4667    0.4667
  band No.  band energies     occupation 
      1      -5.4797      2.00000
      2      -1.8988      0.00000
      3      -1.8987      0.00000
      4      -1.8987      0.00000
      5       0.7536      0.00000


--------------------------------------------------------------------------------------------------------


 soft charge-density along one line, spin component           1
         0         1         2         3         4         5         6         7         8         9
 total charge-density along one line

 pseudopotential strength for first ion, spin component:           1
  5.280 -13.445   0.000  -0.000  -0.000  -0.000   0.000   0.000
-13.445  35.124  -0.000   0.000   0.000   0.000  -0.000  -0.000
  0.000  -0.000  -0.418  -0.000   0.000   1.020   0.000  -0.000
 -0.000   0.000  -0.000  -0.418  -0.000   0.000   1.020   0.000
 -0.000   0.000   0.000  -0.000  -0.418  -0.000   0.000   1.020
 -0.000   0.000   1.020   0.000  -0.000  -0.868  -0.000   0.000
  0.000  -0.000   0.000   1.020   0.000  -0.000  -0.868  -0.000
  0.000  -0.000  -0.000   0.000   1.020   0.000  -0.000  -0.868
 total augmentation occupancy for first ion, spin component:           1
  1.999  -0.000   0.000   0.000   0.000   0.000   0.000   0.000
 -0.000   0.000   0.000   0.000   0.000   0.000   0.000   0.000
  0.000   0.000   0.000   0.000  -0.000   0.000  -0.000   0.000
  0.000   0.000   0.000   0.000  -0.000   0.000   0.000   0.000
  0.000   0.000  -0.000  -0.000   0.000   0.000  -0.000   0.000
  0.000   0.000   0.000   0.000   0.000   0.000   0.000   0.000
  0.000   0.000  -0.000   0.000  -0.000   0.000   0.000  -0.000
  0.000   0.000   0.000   0.000   0.000   0.000  -0.000   0.000


------------------------ aborting loop because EDIFF is reached ----------------------------------------


    CHARGE:  cpu time    0.5650: real time    0.5678
    FORLOC:  cpu time    0.0360: real time    0.0361
    FORNL :  cpu time    1.6669: real time    1.6719
    STRESS:  cpu time   19.7930: real time   19.8810
    FORCOR:  cpu time    1.0071: real time    1.0103
    FORHAR:  cpu time    0.2581: real time    0.2588
    MIXING:  cpu time    0.0393: real time    0.0395
    OFIELD:  cpu time    0.0000: real time    0.0000

  FORCE on cell =-STRESS in cart. coord.  units (eV):
  Direction    XX          YY          ZZ          XY          YZ          ZX
  --------------------------------------------------------------------------------------
  Alpha Z     0.01747     0.01747     0.01747
  Ewald      -2.72377    -2.72377    -2.72377     0.00000     0.00000     0.00000
  Hartree     3.68757     3.68757     3.68757    -0.00000    -0.00000    -0.00000
  E(xc)      -3.51910    -3.51910    -3.51910     0.00000     0.00000     0.00000
  Local     -11.24368   -11.24368   -11.24368     0.00000    -0.00000     0.00000
  n-local     8.95580     8.95590     8.95599     0.00000    -0.00000     0.00000
  augment    -0.88406    -0.88406    -0.88406     0.00000     0.00000     0.00000
  Kinetic     5.71355     5.70932     5.70514     0.00002     0.00002     0.00002
  Fock        0.00000     0.00000     0.00000     0.00000     0.00000     0.00000
  -------------------------------------------------------------------------------------
  Total      -0.00033    -0.00033    -0.00033    -0.00000    -0.00000     0.00000
  in kB      -0.00053    -0.00053    -0.00053    -0.00000    -0.00000     0.00000
  external pressure =       -0.00 kB  Pullay stress =        0.00 kB


 VOLUME and BASIS-vectors are now :
 -----------------------------------------------------------------------------
  energy-cutoff  :      500.00
  volume of cell :     1000.00
      direct lattice vectors                 reciprocal lattice vectors
    10.000000000  0.000000000  0.000000000     0.100000000  0.000000000  0.000000000
     0.000000000 10.000000000  0.000000000     0.000000000  0.100000000  0.000000000
     0.000000000  0.000000000 10.000000000     0.000000000  0.000000000  0.100000000

  length of vectors
    10.000000000 10.000000000 10.000000000     0.100000000  0.100000000  0.100000000


 FORCES acting on ions
    electron-ion (+dipol)            ewald-force                    non-local-force                 convergence-correction
 -----------------------------------------------------------------------------------------------
   -.420E-14 0.159E-13 0.423E-13   -.309E-18 -.134E-17 0.252E-17   0.606E-27 0.606E-27 -.177E-27   0.655E-16 -.727E-16 0.102E-15
 -----------------------------------------------------------------------------------------------
   -.420E-14 0.159E-13 0.423E-13   -.309E-18 -.134E-17 0.252E-17   0.606E-27 0.606E-27 -.177E-27   0.655E-16 -.727E-16 0.102E-15


 POSITION                                       TOTAL-FORCE (eV/Angst)
 -----------------------------------------------------------------------------------
      5.00000      5.00000      5.00000        -0.000000     -0.000000     -0.000000
 -----------------------------------------------------------------------------------
    total drift:                               -0.000000      0.000000      0.000000


--------------------------------------------------------------------------------------------------------



  FREE ENERGIE OF THE ION-ELECTRON SYSTEM (eV)
  ---------------------------------------------------
  free  energy   TOTEN  =        -0.03840541 eV

  energy  without entropy=       -0.03840541  energy(sigma->0) =       -0.03840541



--------------------------------------------------------------------------------------------------------


    POTLOK:  cpu time    0.9754: real time    0.9780


--------------------------------------------------------------------------------------------------------




--------------------------------------------------------------------------------------------------------


  
 reached required accuracy - stopping structural energy minimisation
 writing wavefunctions
     LOOP+:  cpu time  380.5882: real time  386.4291
    4ORBIT:  cpu time    0.0000: real time    0.0000

 total amount of memory used by VASP MPI-rank0   594088. kBytes
=======================================================================

   base      :      30000. kBytes
   nonl-proj :     195793. kBytes
   fftplans  :      48668. kBytes
   grid      :      75314. kBytes
   one-center:          3. kBytes
   wavefun   :     244310. kBytes

  
  
 General timing and accounting informations for this job:
 ========================================================
  
                  Total CPU time used (sec):      387.269
                            User time (sec):      386.205
                          System time (sec):        1.064
                         Elapsed time (sec):      401.633
  
                   Maximum memory used (kb):      936668.
                   Average memory used (kb):          N/A
  
                          Minor page faults:       364739
                          Major page faults:          388
                 Voluntary context switches:        12247
