<?xml version="1.0" encoding="ISO-8859-1"?>
<modeling>
 <generator>
  <i name="program" type="string">vasp </i>
  <i name="version" type="string">6.2.1  </i>
  <i name="subversion" type="string">16May21 (build Dec 20 2021 17:02:34) complex                          parallel </i>
  <i name="platform" type="string">LinuxGNU </i>
  <i name="date" type="string">2026 04 15 </i>
  <i name="time" type="string">21:38:55 </i>
 </generator>
 <incar>
  <i type="int" name="IBRION">     2</i>
  <i name="EDIFF">      0.00000010</i>
  <i type="int" name="NSW">   100</i>
  <i type="int" name="ISIF">     2</i>
  <i name="ENCUT">    500.00000000</i>
  <i type="int" name="ISMEAR">     0</i>
 </incar>
 <primitive_cell>
  <structure name="primitive_cell" >
   <crystal>
    <varray name="basis" >
     <v>      10.00000000       0.00000000       0.00000000 </v>
     <v>       0.00000000      10.00000000       0.00000000 </v>
     <v>       0.00000000       0.00000000      10.00000000 </v>
    </varray>
    <i name="volume">   1000.00000000 </i>
    <varray name="rec_basis" >
     <v>       0.10000000       0.00000000       0.00000000 </v>
     <v>       0.00000000       0.10000000       0.00000000 </v>
     <v>       0.00000000       0.00000000       0.10000000 </v>
    </varray>
   </crystal>
   <varray name="positions" >
    <v>       0.50000000       0.50000000       0.50000000 </v>
   </varray>
  </structure>
  <varray name="primitive_index" >
   <v type="int" >        1 </v>
  </varray>
 </primitive_cell>
 <kpoints>
  <generation param="Monkhorst-Pack">
   <v type="int" name="divisions">      15       15       15 </v>
   <v name="usershift">      0.00000000       0.00000000       0.00000000 </v>
   <v name="genvec1">      0.06666667       0.00000000       0.00000000 </v>
   <v name="genvec2">      0.00000000       0.06666667       0.00000000 </v>
   <v name="genvec3">      0.00000000       0.00000000       0.06666667 </v>
   <v name="shift">      0.00000000       0.00000000       0.00000000 </v>
  </generation>
  <varray name="kpointlist" >
   <v>       0.00000000       0.00000000       0.00000000 </v>
   <v>       0.06666667       0.00000000       0.00000000 </v>
   <v>       0.13333333       0.00000000       0.00000000 </v>
   <v>       0.20000000       0.00000000       0.00000000 </v>
   <v>       0.26666667       0.00000000       0.00000000 </v>
   <v>       0.33333333       0.00000000       0.00000000 </v>
   <v>       0.40000000       0.00000000       0.00000000 </v>
   <v>       0.46666667       0.00000000       0.00000000 </v>
   <v>       0.06666667       0.06666667       0.00000000 </v>
   <v>       0.13333333       0.06666667       0.00000000 </v>
   <v>       0.20000000       0.06666667       0.00000000 </v>
   <v>       0.26666667       0.06666667       0.00000000 </v>
   <v>       0.33333333       0.06666667       0.00000000 </v>
   <v>       0.40000000       0.06666667       0.00000000 </v>
   <v>       0.46666667       0.06666667       0.00000000 </v>
   <v>       0.13333333       0.13333333       0.00000000 </v>
   <v>       0.20000000       0.13333333       0.00000000 </v>
   <v>       0.26666667       0.13333333       0.00000000 </v>
   <v>       0.33333333       0.13333333       0.00000000 </v>
   <v>       0.40000000       0.13333333       0.00000000 </v>
   <v>       0.46666667       0.13333333       0.00000000 </v>
   <v>       0.20000000       0.20000000       0.00000000 </v>
   <v>       0.26666667       0.20000000       0.00000000 </v>
   <v>       0.33333333       0.20000000       0.00000000 </v>
   <v>       0.40000000       0.20000000       0.00000000 </v>
   <v>       0.46666667       0.20000000       0.00000000 </v>
   <v>       0.26666667       0.26666667       0.00000000 </v>
   <v>       0.33333333       0.26666667       0.00000000 </v>
   <v>       0.40000000       0.26666667       0.00000000 </v>
   <v>       0.46666667       0.26666667       0.00000000 </v>
   <v>       0.33333333       0.33333333       0.00000000 </v>
   <v>       0.40000000       0.33333333       0.00000000 </v>
   <v>       0.46666667       0.33333333       0.00000000 </v>
   <v>       0.40000000       0.40000000       0.00000000 </v>
   <v>       0.46666667       0.40000000       0.00000000 </v>
   <v>       0.46666667       0.46666667       0.00000000 </v>
   <v>       0.06666667       0.06666667       0.06666667 </v>
   <v>       0.13333333       0.06666667       0.06666667 </v>
   <v>       0.20000000       0.06666667       0.06666667 </v>
   <v>       0.26666667       0.06666667       0.06666667 </v>
   <v>       0.33333333       0.06666667       0.06666667 </v>
   <v>       0.40000000       0.06666667       0.06666667 </v>
   <v>       0.46666667       0.06666667       0.06666667 </v>
   <v>       0.13333333       0.13333333       0.06666667 </v>
   <v>       0.20000000       0.13333333       0.06666667 </v>
   <v>       0.26666667       0.13333333       0.06666667 </v>
   <v>       0.33333333       0.13333333       0.06666667 </v>
   <v>       0.40000000       0.13333333       0.06666667 </v>
   <v>       0.46666667       0.13333333       0.06666667 </v>
   <v>       0.20000000       0.20000000       0.06666667 </v>
   <v>       0.26666667       0.20000000       0.06666667 </v>
   <v>       0.33333333       0.20000000       0.06666667 </v>
   <v>       0.40000000       0.20000000       0.06666667 </v>
   <v>       0.46666667       0.20000000       0.06666667 </v>
   <v>       0.26666667       0.26666667       0.06666667 </v>
   <v>       0.33333333       0.26666667       0.06666667 </v>
   <v>       0.40000000       0.26666667       0.06666667 </v>
   <v>       0.46666667       0.26666667       0.06666667 </v>
   <v>       0.33333333       0.33333333       0.06666667 </v>
   <v>       0.40000000       0.33333333       0.06666667 </v>
   <v>       0.46666667       0.33333333       0.06666667 </v>
   <v>       0.40000000       0.40000000       0.06666667 </v>
   <v>       0.46666667       0.40000000       0.06666667 </v>
   <v>       0.46666667       0.46666667       0.06666667 </v>
   <v>       0.13333333       0.13333333       0.13333333 </v>
   <v>       0.20000000       0.13333333       0.13333333 </v>
   <v>       0.26666667       0.13333333       0.13333333 </v>
   <v>       0.33333333       0.13333333       0.13333333 </v>
   <v>       0.40000000       0.13333333       0.13333333 </v>
   <v>       0.46666667       0.13333333       0.13333333 </v>
   <v>       0.20000000       0.20000000       0.13333333 </v>
   <v>       0.26666667       0.20000000       0.13333333 </v>
   <v>       0.33333333       0.20000000       0.13333333 </v>
   <v>       0.40000000       0.20000000       0.13333333 </v>
   <v>       0.46666667       0.20000000       0.13333333 </v>
   <v>       0.26666667       0.26666667       0.13333333 </v>
   <v>       0.33333333       0.26666667       0.13333333 </v>
   <v>       0.40000000       0.26666667       0.13333333 </v>
   <v>       0.46666667       0.26666667       0.13333333 </v>
   <v>       0.33333333       0.33333333       0.13333333 </v>
   <v>       0.40000000       0.33333333       0.13333333 </v>
   <v>       0.46666667       0.33333333       0.13333333 </v>
   <v>       0.40000000       0.40000000       0.13333333 </v>
   <v>       0.46666667       0.40000000       0.13333333 </v>
   <v>       0.46666667       0.46666667       0.13333333 </v>
   <v>       0.20000000       0.20000000       0.20000000 </v>
   <v>       0.26666667       0.20000000       0.20000000 </v>
   <v>       0.33333333       0.20000000       0.20000000 </v>
   <v>       0.40000000       0.20000000       0.20000000 </v>
   <v>       0.46666667       0.20000000       0.20000000 </v>
   <v>       0.26666667       0.26666667       0.20000000 </v>
   <v>       0.33333333       0.26666667       0.20000000 </v>
   <v>       0.40000000       0.26666667       0.20000000 </v>
   <v>       0.46666667       0.26666667       0.20000000 </v>
   <v>       0.33333333       0.33333333       0.20000000 </v>
   <v>       0.40000000       0.33333333       0.20000000 </v>
   <v>       0.46666667       0.33333333       0.20000000 </v>
   <v>       0.40000000       0.40000000       0.20000000 </v>
   <v>       0.46666667       0.40000000       0.20000000 </v>
   <v>       0.46666667       0.46666667       0.20000000 </v>
   <v>       0.26666667       0.26666667       0.26666667 </v>
   <v>       0.33333333       0.26666667       0.26666667 </v>
   <v>       0.40000000       0.26666667       0.26666667 </v>
   <v>       0.46666667       0.26666667       0.26666667 </v>
   <v>       0.33333333       0.33333333       0.26666667 </v>
   <v>       0.40000000       0.33333333       0.26666667 </v>
   <v>       0.46666667       0.33333333       0.26666667 </v>
   <v>       0.40000000       0.40000000       0.26666667 </v>
   <v>       0.46666667       0.40000000       0.26666667 </v>
   <v>       0.46666667       0.46666667       0.26666667 </v>
   <v>       0.33333333       0.33333333       0.33333333 </v>
   <v>       0.40000000       0.33333333       0.33333333 </v>
   <v>       0.46666667       0.33333333       0.33333333 </v>
   <v>       0.40000000       0.40000000       0.33333333 </v>
   <v>       0.46666667       0.40000000       0.33333333 </v>
   <v>       0.46666667       0.46666667       0.33333333 </v>
   <v>       0.40000000       0.40000000       0.40000000 </v>
   <v>       0.46666667       0.40000000       0.40000000 </v>
   <v>       0.46666667       0.46666667       0.40000000 </v>
   <v>       0.46666667       0.46666667       0.46666667 </v>
  </varray>
  <varray name="weights" >
   <v>       0.00029630 </v>
   <v>       0.00177778 </v>
   <v>       0.00177778 </v>
   <v>       0.00177778 </v>
   <v>       0.00177778 </v>
   <v>       0.00177778 </v>
   <v>       0.00177778 </v>
   <v>       0.00177778 </v>
   <v>       0.00355556 </v>
   <v>       0.00711111 </v>
   <v>       0.00711111 </v>
   <v>       0.00711111 </v>
   <v>       0.00711111 </v>
   <v>       0.00711111 </v>
   <v>       0.00711111 </v>
   <v>       0.00355556 </v>
   <v>       0.00711111 </v>
   <v>       0.00711111 </v>
   <v>       0.00711111 </v>
   <v>       0.00711111 </v>
   <v>       0.00711111 </v>
   <v>       0.00355556 </v>
   <v>       0.00711111 </v>
   <v>       0.00711111 </v>
   <v>       0.00711111 </v>
   <v>       0.00711111 </v>
   <v>       0.00355556 </v>
   <v>       0.00711111 </v>
   <v>       0.00711111 </v>
   <v>       0.00711111 </v>
   <v>       0.00355556 </v>
   <v>       0.00711111 </v>
   <v>       0.00711111 </v>
   <v>       0.00355556 </v>
   <v>       0.00711111 </v>
   <v>       0.00355556 </v>
   <v>       0.00237037 </v>
   <v>       0.00711111 </v>
   <v>       0.00711111 </v>
   <v>       0.00711111 </v>
   <v>       0.00711111 </v>
   <v>       0.00711111 </v>
   <v>       0.00711111 </v>
   <v>       0.00711111 </v>
   <v>       0.01422222 </v>
   <v>       0.01422222 </v>
   <v>       0.01422222 </v>
   <v>       0.01422222 </v>
   <v>       0.01422222 </v>
   <v>       0.00711111 </v>
   <v>       0.01422222 </v>
   <v>       0.01422222 </v>
   <v>       0.01422222 </v>
   <v>       0.01422222 </v>
   <v>       0.00711111 </v>
   <v>       0.01422222 </v>
   <v>       0.01422222 </v>
   <v>       0.01422222 </v>
   <v>       0.00711111 </v>
   <v>       0.01422222 </v>
   <v>       0.01422222 </v>
   <v>       0.00711111 </v>
   <v>       0.01422222 </v>
   <v>       0.00711111 </v>
   <v>       0.00237037 </v>
   <v>       0.00711111 </v>
   <v>       0.00711111 </v>
   <v>       0.00711111 </v>
   <v>       0.00711111 </v>
   <v>       0.00711111 </v>
   <v>       0.00711111 </v>
   <v>       0.01422222 </v>
   <v>       0.01422222 </v>
   <v>       0.01422222 </v>
   <v>       0.01422222 </v>
   <v>       0.00711111 </v>
   <v>       0.01422222 </v>
   <v>       0.01422222 </v>
   <v>       0.01422222 </v>
   <v>       0.00711111 </v>
   <v>       0.01422222 </v>
   <v>       0.01422222 </v>
   <v>       0.00711111 </v>
   <v>       0.01422222 </v>
   <v>       0.00711111 </v>
   <v>       0.00237037 </v>
   <v>       0.00711111 </v>
   <v>       0.00711111 </v>
   <v>       0.00711111 </v>
   <v>       0.00711111 </v>
   <v>       0.00711111 </v>
   <v>       0.01422222 </v>
   <v>       0.01422222 </v>
   <v>       0.01422222 </v>
   <v>       0.00711111 </v>
   <v>       0.01422222 </v>
   <v>       0.01422222 </v>
   <v>       0.00711111 </v>
   <v>       0.01422222 </v>
   <v>       0.00711111 </v>
   <v>       0.00237037 </v>
   <v>       0.00711111 </v>
   <v>       0.00711111 </v>
   <v>       0.00711111 </v>
   <v>       0.00711111 </v>
   <v>       0.01422222 </v>
   <v>       0.01422222 </v>
   <v>       0.00711111 </v>
   <v>       0.01422222 </v>
   <v>       0.00711111 </v>
   <v>       0.00237037 </v>
   <v>       0.00711111 </v>
   <v>       0.00711111 </v>
   <v>       0.00711111 </v>
   <v>       0.01422222 </v>
   <v>       0.00711111 </v>
   <v>       0.00237037 </v>
   <v>       0.00711111 </v>
   <v>       0.00711111 </v>
   <v>       0.00237037 </v>
  </varray>
 </kpoints>
 <parameters>
  <separator name="general" >
   <i type="string" name="SYSTEM">unknown system</i>
   <i type="logical" name="LCOMPAT"> F  </i>
  </separator>
  <separator name="electronic" >
   <i type="string" name="PREC">normal</i>
   <i name="ENMAX">    500.00000000</i>
   <i name="ENAUG">    318.78100000</i>
   <i name="EDIFF">      0.00000010</i>
   <i type="int" name="IALGO">    38</i>
   <i type="int" name="IWAVPR">    11</i>
   <i type="int" name="NBANDS">     5</i>
   <i type="int" name="NBANDSLOW">    -1</i>
   <i type="int" name="NBANDSHIGH">    -1</i>
   <i name="NELECT">      2.00000000</i>
   <i type="int" name="TURBO">     0</i>
   <i type="int" name="IRESTART">     0</i>
   <i type="int" name="NREBOOT">     0</i>
   <i type="int" name="NMIN">     0</i>
   <i name="EREF">      0.00000000</i>
   <separator name="electronic smearing" >
    <i type="int" name="ISMEAR">     0</i>
    <i name="SIGMA">      0.20000000</i>
    <i name="KSPACING">      0.50000000</i>
    <i type="logical" name="KGAMMA"> T  </i>
    <i type="logical" name="KBLOWUP"> T  </i>
   </separator>
   <separator name="electronic projectors" >
    <i type="logical" name="LREAL"> F  </i>
    <v name="ROPT">      0.00000000</v>
    <i type="int" name="LMAXPAW">  -100</i>
    <i type="int" name="LMAXMIX">     2</i>
    <i type="logical" name="NLSPLINE"> F  </i>
   </separator>
   <separator name="electronic startup" >
    <i type="int" name="ISTART">     0</i>
    <i type="int" name="ICHARG">     2</i>
    <i type="int" name="INIWAV">     1</i>
   </separator>
   <separator name="electronic spin" >
    <i type="int" name="ISPIN">     1</i>
    <i type="logical" name="LNONCOLLINEAR"> F  </i>
    <v name="MAGMOM">      1.00000000</v>
    <i name="NUPDOWN">     -1.00000000</i>
    <i type="logical" name="LSORBIT"> F  </i>
    <v name="SAXIS">      0.00000000      0.00000000      1.00000000</v>
    <i type="logical" name="LSPIRAL"> F  </i>
    <v name="QSPIRAL">      0.00000000      0.00000000      0.00000000</v>
    <i type="logical" name="LZEROZ"> F  </i>
   </separator>
   <separator name="electronic exchange-correlation" >
    <i type="logical" name="LASPH"> F  </i>
    <i type="logical" name="LMETAGGA"> F  </i>
   </separator>
   <separator name="electronic convergence" >
    <i type="int" name="NELM">    60</i>
    <i type="int" name="NELMDL">     0</i>
    <i type="int" name="NELMIN">     2</i>
    <i name="ENINI">    500.00000000</i>
    <separator name="electronic convergence detail" >
     <i type="logical" name="LDIAG"> T  </i>
     <i type="logical" name="LSUBROT"> F  </i>
     <i name="WEIMIN">      0.00100000</i>
     <i name="EBREAK">      0.00000001</i>
     <i name="DEPER">      0.30000000</i>
     <i type="int" name="NRMM">     4</i>
     <i name="TIME">      0.40000000</i>
    </separator>
   </separator>
   <separator name="electronic mixer" >
    <i name="AMIX">      0.40000000</i>
    <i name="BMIX">      1.00000000</i>
    <i name="AMIN">      0.10000000</i>
    <i name="AMIX_MAG">      1.60000000</i>
    <i name="BMIX_MAG">      1.00000000</i>
    <separator name="electronic mixer details" >
     <i type="int" name="IMIX">     4</i>
     <i type="logical" name="MIXFIRST"> F  </i>
     <i type="int" name="MAXMIX">   -45</i>
     <i name="WC">    100.00000000</i>
     <i type="int" name="INIMIX">     1</i>
     <i type="int" name="MIXPRE">     1</i>
     <i type="int" name="MREMOVE">     5</i>
    </separator>
   </separator>
   <separator name="electronic dipolcorrection" >
    <i type="logical" name="LDIPOL"> F  </i>
    <i type="logical" name="LMONO"> F  </i>
    <i type="int" name="IDIPOL">     0</i>
    <i name="EPSILON">      1.00000000</i>
    <v name="DIPOL">   -100.00000000   -100.00000000   -100.00000000</v>
    <i name="EFIELD">      0.00000000</i>
   </separator>
  </separator>
  <separator name="grids" >
   <i type="int" name="NGX">    56</i>
   <i type="int" name="NGY">    56</i>
   <i type="int" name="NGZ">    56</i>
   <i type="int" name="NGXF">   112</i>
   <i type="int" name="NGYF">   112</i>
   <i type="int" name="NGZF">   112</i>
   <i type="logical" name="ADDGRID"> F  </i>
  </separator>
  <separator name="ionic" >
   <i type="int" name="NSW">   100</i>
   <i type="int" name="IBRION">     2</i>
   <i type="int" name="MDALGO">     0</i>
   <i type="int" name="ISIF">     2</i>
   <i name="PSTRESS">      0.00000000</i>
   <i name="EDIFFG">      0.00000100</i>
   <i type="int" name="NFREE">     1</i>
   <i name="POTIM">      0.50000000</i>
   <i name="SMASS">     -3.00000000</i>
   <i name="SCALEE">      1.00000000</i>
  </separator>
  <separator name="ionic md" >
   <i name="TEBEG">      0.00010000</i>
   <i name="TEEND">      0.00010000</i>
   <i type="int" name="NBLOCK">     1</i>
   <i type="int" name="KBLOCK">   100</i>
   <i type="int" name="NPACO">   256</i>
   <i name="APACO">     16.00000000</i>
  </separator>
  <separator name="symmetry" >
   <i type="int" name="ISYM">     2</i>
   <i name="SYMPREC">      0.00001000</i>
  </separator>
  <separator name="dos" >
   <i type="int" name="LORBIT">     0</i>
   <v name="RWIGS">     -1.00000000</v>
   <i type="int" name="NEDOS">   301</i>
   <i name="EMIN">     10.00000000</i>
   <i name="EMAX">    -10.00000000</i>
   <i name="EFERMI">      0.00000000</i>
  </separator>
  <separator name="writing" >
   <i type="int" name="NWRITE">     2</i>
   <i type="logical" name="LWAVE"> T  </i>
   <i type="logical" name="LDOWNSAMPLE"> F  </i>
   <i type="logical" name="LCHARG"> T  </i>
   <i type="logical" name="LPARD"> F  </i>
   <i type="logical" name="LVTOT"> F  </i>
   <i type="logical" name="LVHAR"> F  </i>
   <i type="logical" name="LELF"> F  </i>
   <i type="logical" name="LOPTICS"> F  </i>
   <v name="STM">      0.00000000      0.00000000      0.00000000      0.00000000      0.00000000      0.00000000      0.00000000</v>
  </separator>
  <separator name="performance" >
   <i type="int" name="NPAR">     1</i>
   <i type="int" name="NSIM">     4</i>
   <i type="int" name="NBLK">    -1</i>
   <i type="logical" name="LPLANE"> T  </i>
   <i type="logical" name="LSCALAPACK"> T  </i>
   <i type="logical" name="LSCAAWARE"> F  </i>
   <i type="logical" name="LSCALU"> F  </i>
   <i type="logical" name="LASYNC"> F  </i>
   <i type="logical" name="LORBITALREAL"> F  </i>
  </separator>
  <separator name="miscellaneous" >
   <i type="int" name="IDIOT">     3</i>
   <i type="int" name="PHON_NSTRUCT">    -1</i>
   <i type="logical" name="LMUSIC"> F  </i>
   <v name="POMASS">      9.01300000</v>
   <v name="DARWINR">      0.00000000</v>
   <v name="DARWINV">      1.00000000</v>
   <i type="logical" name="LCORR"> T  </i>
  </separator>
  <i type="logical" name="GGA_COMPAT"> T  </i>
  <i type="logical" name="LBERRY"> F  </i>
  <i type="int" name="ICORELEVEL">     0</i>
  <i type="logical" name="LDAU"> F  </i>
  <i type="int" name="I_CONSTRAINED_M">     0</i>
  <separator name="electronic exchange-correlation" >
   <i type="string" name="GGA">--</i>
   <i type="int" name="VOSKOWN">     0</i>
   <i type="logical" name="LHFCALC"> F  </i>
   <i type="string" name="PRECFOCK"></i>
   <i type="logical" name="LSYMGRAD"> F  </i>
   <i type="logical" name="LHFONE"> F  </i>
   <i type="logical" name="LRHFCALC"> F  </i>
   <i type="logical" name="LTHOMAS"> F  </i>
   <i type="logical" name="LMODELHF"> F  </i>
   <i type="logical" name="LFOCKACE"> F  </i>
   <i name="ENCUT4O">     -1.00000000</i>
   <i type="int" name="EXXOEP">     0</i>
   <i type="int" name="FOURORBIT">     0</i>
   <i name="AEXX">      0.00000000</i>
   <i name="HFALPHA">      0.00000000</i>
   <i name="MCALPHA">      0.00000000</i>
   <i name="ALDAX">      1.00000000</i>
   <i name="AGGAX">      1.00000000</i>
   <i name="ALDAC">      1.00000000</i>
   <i name="AGGAC">      1.00000000</i>
   <i type="int" name="NKREDX">     1</i>
   <i type="int" name="NKREDY">     1</i>
   <i type="int" name="NKREDZ">     1</i>
   <i type="logical" name="SHIFTRED"> F  </i>
   <i type="logical" name="ODDONLY"> F  </i>
   <i type="logical" name="EVENONLY"> F  </i>
   <i type="int" name="LMAXFOCK">     0</i>
   <i type="int" name="NMAXFOCKAE">     0</i>
   <i type="logical" name="LFOCKAEDFT"> F  </i>
   <i name="HFSCREEN">      0.00000000</i>
   <i name="HFSCREENC">      0.00000000</i>
   <i type="int" name="NBANDSGWLOW">     0</i>
  </separator>
  <separator name="vdW DFT" >
   <i type="logical" name="LUSE_VDW"> F  </i>
   <i name="Zab_VDW">     -0.84910000</i>
   <i name="PARAM1">      0.12340000</i>
   <i name="PARAM2">      1.00000000</i>
   <i name="PARAM3">      0.00000000</i>
  </separator>
  <separator name="model GW" >
   <i type="int" name="MODEL_GW">     0</i>
   <i name="MODEL_EPS0">    600.00000000</i>
   <i name="MODEL_ALPHA">      1.00000000</i>
  </separator>
  <separator name="linear response parameters" >
   <i type="logical" name="LEPSILON"> F  </i>
   <i type="logical" name="LRPA"> F  </i>
   <i type="logical" name="LNABLA"> F  </i>
   <i type="logical" name="LVEL"> F  </i>
   <i type="int" name="KINTER">     0</i>
   <i name="CSHIFT">      0.10000000</i>
   <i name="OMEGAMAX">     -1.00000000</i>
   <i name="DEG_THRESHOLD">      0.00200000</i>
   <i name="RTIME">     -0.10000000</i>
   <i name="WPLASMAI">      0.00000000</i>
   <v name="DFIELD">      0.00000000      0.00000000      0.00000000</v>
   <v name="WPLASMA">      0.00000000      0.00000000      0.00000000      0.00000000      0.00000000      0.00000000      0.00000000      0.00000000      0.00000000</v>
  </separator>
  <separator name="orbital magnetization" >
   <i type="logical" name="NUCIND"> F  </i>
   <v name="MAGPOS">      0.00000000      0.00000000      0.00000000</v>
   <i type="logical" name="LNICSALL"> T  </i>
   <i type="logical" name="ORBITALMAG"> F  </i>
   <i type="logical" name="LMAGBLOCH"> F  </i>
   <i type="logical" name="LCHIMAG"> F  </i>
   <i type="logical" name="LGAUGE"> T  </i>
   <i type="int" name="MAGATOM">     0</i>
   <v name="MAGDIPOL">      0.00000000      0.00000000      0.00000000</v>
   <v name="AVECCONST">      0.00000000      0.00000000      0.00000000</v>
  </separator>
  <separator name="response functions" >
   <i type="logical" name="LFINITE_TEMPERATURE"> F  </i>
   <i type="logical" name="LADDER"> F  </i>
   <i type="logical" name="LRPAFORCE"> F  </i>
   <i type="logical" name="LFXC"> F  </i>
   <i type="logical" name="LHARTREE"> T  </i>
   <i type="int" name="IBSE">     0</i>
   <v type="int" name="KPOINT">    -1     0     0     0</v>
   <i type="logical" name="LTCTC"> F  </i>
   <i type="logical" name="LTCTE"> F  </i>
   <i type="logical" name="LTETE"> F  </i>
   <i type="logical" name="LTRIPLET"> F  </i>
   <i type="logical" name="LFXCEPS"> F  </i>
   <i type="logical" name="LFXHEG"> F  </i>
   <i type="int" name="NATURALO">     2</i>
   <i type="logical" name="LHOLEGF"> F  </i>
   <i type="logical" name="L2ORDER"> F  </i>
   <i type="logical" name="LDMP1"> F  </i>
   <i type="logical" name="LMP2LT"> F  </i>
   <i type="logical" name="LSMP2LT"> F  </i>
   <i type="logical" name="LGWLF"> F  </i>
   <i name="ENCUTGW">     -2.00000000</i>
   <i name="ENCUTGWSOFT">     -2.00000000</i>
   <i name="ENCUTLF">     -1.00000000</i>
   <i type="logical" name="LESF_SPLINES"> F  </i>
   <i type="int" name="LMAXMP2">    -1</i>
   <i name="SCISSOR">      0.00000000</i>
   <i type="int" name="NOMEGA">     0</i>
   <i type="int" name="NOMEGAR">     0</i>
   <i type="int" name="NBANDSGW">    -1</i>
   <i type="int" name="NBANDSO">    -1</i>
   <i type="int" name="NBANDSV">    -1</i>
   <i type="int" name="NELM">     1</i>
   <i type="int" name="NELMHF">     1</i>
   <i type="int" name="DIM">     3</i>
   <i type="int" name="IESPILON">     4</i>
   <i type="int" name="ANTIRES">     0</i>
   <i name="OMEGAMAX">    -30.00000000</i>
   <i name="OMEGAMIN">    -30.00000000</i>
   <i name="OMEGATL">   -200.00000000</i>
   <i type="int" name="OMEGAGRID">     0</i>
   <i name="CSHIFT">     -0.10000000</i>
   <i type="logical" name="LSELFENERGY"> F  </i>
   <i type="logical" name="LSPECTRAL"> F  </i>
   <i type="logical" name="LSPECTRALGW"> F  </i>
   <i type="logical" name="LSINGLES"> F  </i>
   <i type="logical" name="LFERMIGW"> F  </i>
   <i type="logical" name="ODDONLYGW"> F  </i>
   <i type="logical" name="EVENONLYGW"> F  </i>
   <i type="int" name="NKREDLFX">     1</i>
   <i type="int" name="NKREDLFY">     1</i>
   <i type="int" name="NKREDLFZ">     1</i>
   <i type="int" name="MAXMEM">  2800</i>
   <i type="int" name="TELESCOPE">     0</i>
   <i type="int" name="NTAUPAR">    -1</i>
   <i type="int" name="NOMEGAPAR">    -1</i>
   <i name="DAMP_NEWTON">      0.80000001</i>
   <i name="LAMBDA">      1.00000000</i>
  </separator>
  <separator name="External order field" >
   <i name="OFIELD_KAPPA">      0.00000000</i>
   <v name="OFIELD_K">      0.00000000      0.00000000      0.00000000</v>
   <i name="OFIELD_Q6_NEAR">      0.00000000</i>
   <i name="OFIELD_Q6_FAR">      0.00000000</i>
   <i name="OFIELD_A">      0.00000000</i>
  </separator>
 </parameters>
 <atominfo>
  <atoms>       1 </atoms>
  <types>       1 </types>
  <array name="atoms" >
   <dimension dim="1">ion</dimension>
   <field type="string">element</field>
   <field type="int">atomtype</field>
   <set>
    <rc><c>Be</c><c>   1</c></rc>
   </set>
  </array>
  <array name="atomtypes" >
   <dimension dim="1">type</dimension>
   <field type="int">atomspertype</field>
   <field type="string">element</field>
   <field>mass</field>
   <field>valence</field>
   <field type="string">pseudopotential</field>
   <set>
    <rc><c>   1</c><c>Be</c><c>      9.01300000</c><c>      2.00000000</c><c>  PAW_PBE Be 06Sep2000                  </c></rc>
   </set>
  </array>
 </atominfo>
 <structure name="initialpos" >
  <crystal>
   <varray name="basis" >
    <v>      10.00000000       0.00000000       0.00000000 </v>
    <v>       0.00000000      10.00000000       0.00000000 </v>
    <v>       0.00000000       0.00000000      10.00000000 </v>
   </varray>
   <i name="volume">   1000.00000000 </i>
   <varray name="rec_basis" >
    <v>       0.10000000       0.00000000       0.00000000 </v>
    <v>       0.00000000       0.10000000       0.00000000 </v>
    <v>       0.00000000       0.00000000       0.10000000 </v>
   </varray>
  </crystal>
  <varray name="positions" >
   <v>       0.50000000       0.50000000       0.50000000 </v>
  </varray>
 </structure>
 <calculation>
  <scstep>
   <time name="dav">   20.39   20.56</time>
   <time name="total">   21.39   21.56</time>
   <energy>
    <i name="alphaZ">      0.01746910 </i>
    <i name="ewald">     -8.17129600 </i>
    <i name="hartreedc">    -11.04779190 </i>
    <i name="XCdc">      2.02396582 </i>
    <i name="pawpsdc">     15.25623133 </i>
    <i name="pawaedc">    -14.62257617 </i>
    <i name="eentropy">     -0.00149894 </i>
    <i name="bandstr">     -7.30254913 </i>
    <i name="atom">     27.47922402 </i>
    <i name="e_fr_energy">      3.63117813 </i>
    <i name="e_wo_entrp">      3.63267707 </i>
    <i name="e_0_energy">      3.63192760 </i>
   </energy>
  </scstep>
  <scstep>
   <time name="dav">   30.40   30.62</time>
   <time name="total">   30.41   30.62</time>
   <energy>
    <i name="e_fr_energy">      0.15050718 </i>
    <i name="e_wo_entrp">      0.15050718 </i>
    <i name="e_0_energy">      0.15050718 </i>
   </energy>
  </scstep>
  <scstep>
   <time name="dav">   26.76   26.94</time>
   <time name="total">   26.76   26.94</time>
   <energy>
    <i name="e_fr_energy">     -0.03781526 </i>
    <i name="e_wo_entrp">     -0.03781526 </i>
    <i name="e_0_energy">     -0.03781526 </i>
   </energy>
  </scstep>
  <scstep>
   <time name="dav">   21.35   21.50</time>
   <time name="total">   21.35   21.50</time>
   <energy>
    <i name="e_fr_energy">     -0.03839215 </i>
    <i name="e_wo_entrp">     -0.03839215 </i>
    <i name="e_0_energy">     -0.03839215 </i>
   </energy>
  </scstep>
  <scstep>
   <time name="dav">   24.77   24.92</time>
   <time name="total">   25.38   25.54</time>
   <energy>
    <i name="e_fr_energy">     -0.03840171 </i>
    <i name="e_wo_entrp">     -0.03840171 </i>
    <i name="e_0_energy">     -0.03840171 </i>
   </energy>
  </scstep>
  <scstep>
   <time name="dav">   24.20   24.36</time>
   <time name="total">   25.87   26.03</time>
   <energy>
    <i name="e_fr_energy">     -0.03840347 </i>
    <i name="e_wo_entrp">     -0.03840346 </i>
    <i name="e_0_energy">     -0.03840347 </i>
   </energy>
  </scstep>
  <scstep>
   <time name="dav">   26.19   26.38</time>
   <time name="total">   27.83   28.04</time>
   <energy>
    <i name="e_fr_energy">     -0.03840114 </i>
    <i name="e_wo_entrp">     -0.03840114 </i>
    <i name="e_0_energy">     -0.03840114 </i>
   </energy>
  </scstep>
  <scstep>
   <time name="dav">   21.66   21.79</time>
   <time name="total">   23.32   23.47</time>
   <energy>
    <i name="e_fr_energy">     -0.03840147 </i>
    <i name="e_wo_entrp">     -0.03840147 </i>
    <i name="e_0_energy">     -0.03840147 </i>
   </energy>
  </scstep>
  <scstep>
   <time name="dav">   21.12   21.26</time>
   <time name="total">   22.75   22.90</time>
   <energy>
    <i name="e_fr_energy">     -0.03840264 </i>
    <i name="e_wo_entrp">     -0.03840264 </i>
    <i name="e_0_energy">     -0.03840264 </i>
   </energy>
  </scstep>
  <scstep>
   <time name="dav">   21.12   21.24</time>
   <time name="total">   22.78   22.91</time>
   <energy>
    <i name="e_fr_energy">     -0.03840427 </i>
    <i name="e_wo_entrp">     -0.03840427 </i>
    <i name="e_0_energy">     -0.03840427 </i>
   </energy>
  </scstep>
  <scstep>
   <time name="dav">   22.19   22.32</time>
   <time name="total">   23.87   24.01</time>
   <energy>
    <i name="e_fr_energy">     -0.03840509 </i>
    <i name="e_wo_entrp">     -0.03840509 </i>
    <i name="e_0_energy">     -0.03840509 </i>
   </energy>
  </scstep>
  <scstep>
   <time name="dav">   27.33   27.51</time>
   <time name="total">   28.98   29.17</time>
   <energy>
    <i name="e_fr_energy">     -0.03840524 </i>
    <i name="e_wo_entrp">     -0.03840524 </i>
    <i name="e_0_energy">     -0.03840524 </i>
   </energy>
  </scstep>
  <scstep>
   <time name="dav">   25.45   25.61</time>
   <time name="total">   27.11   27.27</time>
   <energy>
    <i name="e_fr_energy">     -0.03840541 </i>
    <i name="e_wo_entrp">     -0.03840541 </i>
    <i name="e_0_energy">     -0.03840541 </i>
   </energy>
  </scstep>
  <scstep>
   <time name="dav">   25.08   25.23</time>
   <time name="total">   26.14   26.29</time>
   <energy>
    <i name="alphaZ">      0.01746910 </i>
    <i name="ewald">     -8.17129600 </i>
    <i name="hartreedc">    -11.06270385 </i>
    <i name="XCdc">      2.02660830 </i>
    <i name="pawpsdc">     15.26653457 </i>
    <i name="pawaedc">    -14.63290871 </i>
    <i name="eentropy">     -0.00000000 </i>
    <i name="bandstr">    -10.96133284 </i>
    <i name="atom">     27.47922402 </i>
    <i name="e_fr_energy">     -0.03840541 </i>
    <i name="e_wo_entrp">     -0.03840541 </i>
    <i name="e_0_energy">     -0.03840541 </i>
   </energy>
  </scstep>
  <structure>
   <crystal>
    <varray name="basis" >
     <v>      10.00000000       0.00000000       0.00000000 </v>
     <v>       0.00000000      10.00000000       0.00000000 </v>
     <v>       0.00000000       0.00000000      10.00000000 </v>
    </varray>
    <i name="volume">   1000.00000000 </i>
    <varray name="rec_basis" >
     <v>       0.10000000       0.00000000       0.00000000 </v>
     <v>       0.00000000       0.10000000       0.00000000 </v>
     <v>       0.00000000       0.00000000       0.10000000 </v>
    </varray>
   </crystal>
   <varray name="positions" >
    <v>       0.50000000       0.50000000       0.50000000 </v>
   </varray>
  </structure>
  <varray name="forces" >
   <v>      -0.00000000      -0.00000000      -0.00000000 </v>
  </varray>
  <varray name="stress" >
   <v>      -0.00053434       0.00000000       0.00000000 </v>
   <v>      -0.00000000      -0.00053434      -0.00000000 </v>
   <v>      -0.00000000      -0.00000000      -0.00053434 </v>
  </varray>
  <energy>
   <i name="e_fr_energy">     -0.03840541 </i>
   <i name="e_wo_entrp">     -0.03840541 </i>
   <i name="e_0_energy">     -0.03840541 </i>
  </energy>
  <time name="totalsc">  380.59  386.43</time>
  <eigenvalues>
   <array>
    <dimension dim="1">band</dimension>
    <dimension dim="2">kpoint</dimension>
    <dimension dim="3">spin</dimension>
    <field>eigene</field>
    <field>occ</field>
    <set>
     <set comment="spin 1">
      <set comment="kpoint 1">
       <r>   -5.4817    1.0000 </r>
       <r>   -1.8782    0.0000 </r>
       <r>   -1.8782    0.0000 </r>
       <r>   -1.8782    0.0000 </r>
       <r>   -0.2397    0.0000 </r>
      </set>
      <set comment="kpoint 2">
       <r>   -5.4816    1.0000 </r>
       <r>   -1.8795    0.0000 </r>
       <r>   -1.8781    0.0000 </r>
       <r>   -1.8781    0.0000 </r>
       <r>   -0.2315    0.0000 </r>
      </set>
      <set comment="kpoint 3">
       <r>   -5.4815    1.0000 </r>
       <r>   -1.8831    0.0000 </r>
       <r>   -1.8777    0.0000 </r>
       <r>   -1.8777    0.0000 </r>
       <r>   -0.2074    0.0000 </r>
      </set>
      <set comment="kpoint 4">
       <r>   -5.4814    1.0000 </r>
       <r>   -1.8885    0.0000 </r>
       <r>   -1.8773    0.0000 </r>
       <r>   -1.8773    0.0000 </r>
       <r>   -0.1681    0.0000 </r>
      </set>
      <set comment="kpoint 5">
       <r>   -5.4813    1.0000 </r>
       <r>   -1.8945    0.0000 </r>
       <r>   -1.8768    0.0000 </r>
       <r>   -1.8768    0.0000 </r>
       <r>   -0.1149    0.0000 </r>
      </set>
      <set comment="kpoint 6">
       <r>   -5.4812    1.0000 </r>
       <r>   -1.9002    0.0000 </r>
       <r>   -1.8762    0.0000 </r>
       <r>   -1.8762    0.0000 </r>
       <r>   -0.0501    0.0000 </r>
      </set>
      <set comment="kpoint 7">
       <r>   -5.4811    1.0000 </r>
       <r>   -1.9046    0.0000 </r>
       <r>   -1.8758    0.0000 </r>
       <r>   -1.8758    0.0000 </r>
       <r>    0.0221    0.0000 </r>
      </set>
      <set comment="kpoint 8">
       <r>   -5.4810    1.0000 </r>
       <r>   -1.9070    0.0000 </r>
       <r>   -1.8756    0.0000 </r>
       <r>   -1.8756    0.0000 </r>
       <r>    0.0860    0.0000 </r>
      </set>
      <set comment="kpoint 9">
       <r>   -5.4816    1.0000 </r>
       <r>   -1.8795    0.0000 </r>
       <r>   -1.8793    0.0000 </r>
       <r>   -1.8780    0.0000 </r>
       <r>   -0.2234    0.0000 </r>
      </set>
      <set comment="kpoint 10">
       <r>   -5.4815    1.0000 </r>
       <r>   -1.8830    0.0000 </r>
       <r>   -1.8790    0.0000 </r>
       <r>   -1.8776    0.0000 </r>
       <r>   -0.1993    0.0000 </r>
      </set>
      <set comment="kpoint 11">
       <r>   -5.4814    1.0000 </r>
       <r>   -1.8883    0.0000 </r>
       <r>   -1.8786    0.0000 </r>
       <r>   -1.8772    0.0000 </r>
       <r>   -0.1600    0.0000 </r>
      </set>
      <set comment="kpoint 12">
       <r>   -5.4813    1.0000 </r>
       <r>   -1.8944    0.0000 </r>
       <r>   -1.8780    0.0000 </r>
       <r>   -1.8766    0.0000 </r>
       <r>   -0.1069    0.0000 </r>
      </set>
      <set comment="kpoint 13">
       <r>   -5.4811    1.0000 </r>
       <r>   -1.9001    0.0000 </r>
       <r>   -1.8775    0.0000 </r>
       <r>   -1.8761    0.0000 </r>
       <r>   -0.0421    0.0000 </r>
      </set>
      <set comment="kpoint 14">
       <r>   -5.4810    1.0000 </r>
       <r>   -1.9044    0.0000 </r>
       <r>   -1.8771    0.0000 </r>
       <r>   -1.8757    0.0000 </r>
       <r>    0.0302    0.0000 </r>
      </set>
      <set comment="kpoint 15">
       <r>   -5.4810    1.0000 </r>
       <r>   -1.9068    0.0000 </r>
       <r>   -1.8768    0.0000 </r>
       <r>   -1.8755    0.0000 </r>
       <r>    0.0947    0.0000 </r>
      </set>
      <set comment="kpoint 16">
       <r>   -5.4814    1.0000 </r>
       <r>   -1.8830    0.0000 </r>
       <r>   -1.8823    0.0000 </r>
       <r>   -1.8773    0.0000 </r>
       <r>   -0.1752    0.0000 </r>
      </set>
      <set comment="kpoint 17">
       <r>   -5.4813    1.0000 </r>
       <r>   -1.8880    0.0000 </r>
       <r>   -1.8821    0.0000 </r>
       <r>   -1.8769    0.0000 </r>
       <r>   -0.1361    0.0000 </r>
      </set>
      <set comment="kpoint 18">
       <r>   -5.4812    1.0000 </r>
       <r>   -1.8939    0.0000 </r>
       <r>   -1.8815    0.0000 </r>
       <r>   -1.8763    0.0000 </r>
       <r>   -0.0831    0.0000 </r>
      </set>
      <set comment="kpoint 19">
       <r>   -5.4810    1.0000 </r>
       <r>   -1.8996    0.0000 </r>
       <r>   -1.8809    0.0000 </r>
       <r>   -1.8758    0.0000 </r>
       <r>   -0.0183    0.0000 </r>
      </set>
      <set comment="kpoint 20">
       <r>   -5.4809    1.0000 </r>
       <r>   -1.9039    0.0000 </r>
       <r>   -1.8805    0.0000 </r>
       <r>   -1.8754    0.0000 </r>
       <r>    0.0545    0.0000 </r>
      </set>
      <set comment="kpoint 21">
       <r>   -5.4809    1.0000 </r>
       <r>   -1.9063    0.0000 </r>
       <r>   -1.8803    0.0000 </r>
       <r>   -1.8752    0.0000 </r>
       <r>    0.1205    0.0000 </r>
      </set>
      <set comment="kpoint 22">
       <r>   -5.4812    1.0000 </r>
       <r>   -1.8879    0.0000 </r>
       <r>   -1.8868    0.0000 </r>
       <r>   -1.8764    0.0000 </r>
       <r>   -0.0971    0.0000 </r>
      </set>
      <set comment="kpoint 23">
       <r>   -5.4811    1.0000 </r>
       <r>   -1.8933    0.0000 </r>
       <r>   -1.8866    0.0000 </r>
       <r>   -1.8759    0.0000 </r>
       <r>   -0.0443    0.0000 </r>
      </set>
      <set comment="kpoint 24">
       <r>   -5.4809    1.0000 </r>
       <r>   -1.8989    0.0000 </r>
       <r>   -1.8860    0.0000 </r>
       <r>   -1.8754    0.0000 </r>
       <r>    0.0206    0.0000 </r>
      </set>
      <set comment="kpoint 25">
       <r>   -5.4808    1.0000 </r>
       <r>   -1.9032    0.0000 </r>
       <r>   -1.8855    0.0000 </r>
       <r>   -1.8750    0.0000 </r>
       <r>    0.0939    0.0000 </r>
      </set>
      <set comment="kpoint 26">
       <r>   -5.4808    1.0000 </r>
       <r>   -1.9055    0.0000 </r>
       <r>   -1.8852    0.0000 </r>
       <r>   -1.8748    0.0000 </r>
       <r>    0.1623    0.0000 </r>
      </set>
      <set comment="kpoint 27">
       <r>   -5.4809    1.0000 </r>
       <r>   -1.8931    0.0000 </r>
       <r>   -1.8919    0.0000 </r>
       <r>   -1.8754    0.0000 </r>
       <r>    0.0084    0.0000 </r>
      </set>
      <set comment="kpoint 28">
       <r>   -5.4808    1.0000 </r>
       <r>   -1.8981    0.0000 </r>
       <r>   -1.8917    0.0000 </r>
       <r>   -1.8749    0.0000 </r>
       <r>    0.0732    0.0000 </r>
      </set>
      <set comment="kpoint 29">
       <r>   -5.4807    1.0000 </r>
       <r>   -1.9023    0.0000 </r>
       <r>   -1.8912    0.0000 </r>
       <r>   -1.8745    0.0000 </r>
       <r>    0.1471    0.0000 </r>
      </set>
      <set comment="kpoint 30">
       <r>   -5.4806    1.0000 </r>
       <r>   -1.9046    0.0000 </r>
       <r>   -1.8909    0.0000 </r>
       <r>   -1.8743    0.0000 </r>
       <r>    0.2185    0.0000 </r>
      </set>
      <set comment="kpoint 31">
       <r>   -5.4807    1.0000 </r>
       <r>   -1.8977    0.0000 </r>
       <r>   -1.8967    0.0000 </r>
       <r>   -1.8744    0.0000 </r>
       <r>    0.1379    0.0000 </r>
      </set>
      <set comment="kpoint 32">
       <r>   -5.4806    1.0000 </r>
       <r>   -1.9014    0.0000 </r>
       <r>   -1.8966    0.0000 </r>
       <r>   -1.8740    0.0000 </r>
       <r>    0.2124    0.0000 </r>
      </set>
      <set comment="kpoint 33">
       <r>   -5.4805    1.0000 </r>
       <r>   -1.9037    0.0000 </r>
       <r>   -1.8962    0.0000 </r>
       <r>   -1.8738    0.0000 </r>
       <r>    0.2870    0.0000 </r>
      </set>
      <set comment="kpoint 34">
       <r>   -5.4805    1.0000 </r>
       <r>   -1.9010    0.0000 </r>
       <r>   -1.9005    0.0000 </r>
       <r>   -1.8736    0.0000 </r>
       <r>    0.2874    0.0000 </r>
      </set>
      <set comment="kpoint 35">
       <r>   -5.4804    1.0000 </r>
       <r>   -1.9030    0.0000 </r>
       <r>   -1.9004    0.0000 </r>
       <r>   -1.8734    0.0000 </r>
       <r>    0.3647    0.0000 </r>
      </set>
      <set comment="kpoint 36">
       <r>   -5.4804    1.0000 </r>
       <r>   -1.9026    0.0000 </r>
       <r>   -1.9026    0.0000 </r>
       <r>   -1.8732    0.0000 </r>
       <r>    0.4423    0.0000 </r>
      </set>
      <set comment="kpoint 37">
       <r>   -5.4816    1.0000 </r>
       <r>   -1.8795    0.0000 </r>
       <r>   -1.8791    0.0000 </r>
       <r>   -1.8791    0.0000 </r>
       <r>   -0.2153    0.0000 </r>
      </set>
      <set comment="kpoint 38">
       <r>   -5.4815    1.0000 </r>
       <r>   -1.8829    0.0000 </r>
       <r>   -1.8790    0.0000 </r>
       <r>   -1.8788    0.0000 </r>
       <r>   -0.1912    0.0000 </r>
      </set>
      <set comment="kpoint 39">
       <r>   -5.4814    1.0000 </r>
       <r>   -1.8882    0.0000 </r>
       <r>   -1.8785    0.0000 </r>
       <r>   -1.8783    0.0000 </r>
       <r>   -0.1519    0.0000 </r>
      </set>
      <set comment="kpoint 40">
       <r>   -5.4812    1.0000 </r>
       <r>   -1.8942    0.0000 </r>
       <r>   -1.8780    0.0000 </r>
       <r>   -1.8778    0.0000 </r>
       <r>   -0.0989    0.0000 </r>
      </set>
      <set comment="kpoint 41">
       <r>   -5.4811    1.0000 </r>
       <r>   -1.8999    0.0000 </r>
       <r>   -1.8775    0.0000 </r>
       <r>   -1.8773    0.0000 </r>
       <r>   -0.0341    0.0000 </r>
      </set>
      <set comment="kpoint 42">
       <r>   -5.4810    1.0000 </r>
       <r>   -1.9043    0.0000 </r>
       <r>   -1.8770    0.0000 </r>
       <r>   -1.8769    0.0000 </r>
       <r>    0.0384    0.0000 </r>
      </set>
      <set comment="kpoint 43">
       <r>   -5.4809    1.0000 </r>
       <r>   -1.9066    0.0000 </r>
       <r>   -1.8768    0.0000 </r>
       <r>   -1.8766    0.0000 </r>
       <r>    0.1034    0.0000 </r>
      </set>
      <set comment="kpoint 44">
       <r>   -5.4814    1.0000 </r>
       <r>   -1.8829    0.0000 </r>
       <r>   -1.8822    0.0000 </r>
       <r>   -1.8786    0.0000 </r>
       <r>   -0.1672    0.0000 </r>
      </set>
      <set comment="kpoint 45">
       <r>   -5.4813    1.0000 </r>
       <r>   -1.8878    0.0000 </r>
       <r>   -1.8820    0.0000 </r>
       <r>   -1.8781    0.0000 </r>
       <r>   -0.1281    0.0000 </r>
      </set>
      <set comment="kpoint 46">
       <r>   -5.4811    1.0000 </r>
       <r>   -1.8938    0.0000 </r>
       <r>   -1.8814    0.0000 </r>
       <r>   -1.8776    0.0000 </r>
       <r>   -0.0751    0.0000 </r>
      </set>
      <set comment="kpoint 47">
       <r>   -5.4810    1.0000 </r>
       <r>   -1.8994    0.0000 </r>
       <r>   -1.8808    0.0000 </r>
       <r>   -1.8770    0.0000 </r>
       <r>   -0.0103    0.0000 </r>
      </set>
      <set comment="kpoint 48">
       <r>   -5.4809    1.0000 </r>
       <r>   -1.9037    0.0000 </r>
       <r>   -1.8804    0.0000 </r>
       <r>   -1.8766    0.0000 </r>
       <r>    0.0626    0.0000 </r>
      </set>
      <set comment="kpoint 49">
       <r>   -5.4809    1.0000 </r>
       <r>   -1.9061    0.0000 </r>
       <r>   -1.8801    0.0000 </r>
       <r>   -1.8764    0.0000 </r>
       <r>    0.1291    0.0000 </r>
      </set>
      <set comment="kpoint 50">
       <r>   -5.4812    1.0000 </r>
       <r>   -1.8878    0.0000 </r>
       <r>   -1.8866    0.0000 </r>
       <r>   -1.8776    0.0000 </r>
       <r>   -0.0891    0.0000 </r>
      </set>
      <set comment="kpoint 51">
       <r>   -5.4810    1.0000 </r>
       <r>   -1.8932    0.0000 </r>
       <r>   -1.8865    0.0000 </r>
       <r>   -1.8771    0.0000 </r>
       <r>   -0.0363    0.0000 </r>
      </set>
      <set comment="kpoint 52">
       <r>   -5.4809    1.0000 </r>
       <r>   -1.8987    0.0000 </r>
       <r>   -1.8859    0.0000 </r>
       <r>   -1.8766    0.0000 </r>
       <r>    0.0285    0.0000 </r>
      </set>
      <set comment="kpoint 53">
       <r>   -5.4808    1.0000 </r>
       <r>   -1.9030    0.0000 </r>
       <r>   -1.8854    0.0000 </r>
       <r>   -1.8762    0.0000 </r>
       <r>    0.1019    0.0000 </r>
      </set>
      <set comment="kpoint 54">
       <r>   -5.4807    1.0000 </r>
       <r>   -1.9053    0.0000 </r>
       <r>   -1.8851    0.0000 </r>
       <r>   -1.8760    0.0000 </r>
       <r>    0.1708    0.0000 </r>
      </set>
      <set comment="kpoint 55">
       <r>   -5.4809    1.0000 </r>
       <r>   -1.8930    0.0000 </r>
       <r>   -1.8917    0.0000 </r>
       <r>   -1.8766    0.0000 </r>
       <r>    0.0162    0.0000 </r>
      </set>
      <set comment="kpoint 56">
       <r>   -5.4808    1.0000 </r>
       <r>   -1.8979    0.0000 </r>
       <r>   -1.8916    0.0000 </r>
       <r>   -1.8761    0.0000 </r>
       <r>    0.0810    0.0000 </r>
      </set>
      <set comment="kpoint 57">
       <r>   -5.4807    1.0000 </r>
       <r>   -1.9021    0.0000 </r>
       <r>   -1.8911    0.0000 </r>
       <r>   -1.8757    0.0000 </r>
       <r>    0.1550    0.0000 </r>
      </set>
      <set comment="kpoint 58">
       <r>   -5.4806    1.0000 </r>
       <r>   -1.9044    0.0000 </r>
       <r>   -1.8908    0.0000 </r>
       <r>   -1.8755    0.0000 </r>
       <r>    0.2270    0.0000 </r>
      </set>
      <set comment="kpoint 59">
       <r>   -5.4806    1.0000 </r>
       <r>   -1.8975    0.0000 </r>
       <r>   -1.8966    0.0000 </r>
       <r>   -1.8756    0.0000 </r>
       <r>    0.1457    0.0000 </r>
      </set>
      <set comment="kpoint 60">
       <r>   -5.4805    1.0000 </r>
       <r>   -1.9013    0.0000 </r>
       <r>   -1.8964    0.0000 </r>
       <r>   -1.8752    0.0000 </r>
       <r>    0.2202    0.0000 </r>
      </set>
      <set comment="kpoint 61">
       <r>   -5.4805    1.0000 </r>
       <r>   -1.9035    0.0000 </r>
       <r>   -1.8961    0.0000 </r>
       <r>   -1.8750    0.0000 </r>
       <r>    0.2954    0.0000 </r>
      </set>
      <set comment="kpoint 62">
       <r>   -5.4804    1.0000 </r>
       <r>   -1.9008    0.0000 </r>
       <r>   -1.9004    0.0000 </r>
       <r>   -1.8748    0.0000 </r>
       <r>    0.2953    0.0000 </r>
      </set>
      <set comment="kpoint 63">
       <r>   -5.4804    1.0000 </r>
       <r>   -1.9028    0.0000 </r>
       <r>   -1.9002    0.0000 </r>
       <r>   -1.8746    0.0000 </r>
       <r>    0.3731    0.0000 </r>
      </set>
      <set comment="kpoint 64">
       <r>   -5.4803    1.0000 </r>
       <r>   -1.9025    0.0000 </r>
       <r>   -1.9024    0.0000 </r>
       <r>   -1.8744    0.0000 </r>
       <r>    0.4515    0.0000 </r>
      </set>
      <set comment="kpoint 65">
       <r>   -5.4813    1.0000 </r>
       <r>   -1.8829    0.0000 </r>
       <r>   -1.8818    0.0000 </r>
       <r>   -1.8818    0.0000 </r>
       <r>   -0.1433    0.0000 </r>
      </set>
      <set comment="kpoint 66">
       <r>   -5.4812    1.0000 </r>
       <r>   -1.8875    0.0000 </r>
       <r>   -1.8819    0.0000 </r>
       <r>   -1.8813    0.0000 </r>
       <r>   -0.1043    0.0000 </r>
      </set>
      <set comment="kpoint 67">
       <r>   -5.4811    1.0000 </r>
       <r>   -1.8934    0.0000 </r>
       <r>   -1.8814    0.0000 </r>
       <r>   -1.8807    0.0000 </r>
       <r>   -0.0514    0.0000 </r>
      </set>
      <set comment="kpoint 68">
       <r>   -5.4809    1.0000 </r>
       <r>   -1.8989    0.0000 </r>
       <r>   -1.8808    0.0000 </r>
       <r>   -1.8802    0.0000 </r>
       <r>    0.0134    0.0000 </r>
      </set>
      <set comment="kpoint 69">
       <r>   -5.4808    1.0000 </r>
       <r>   -1.9032    0.0000 </r>
       <r>   -1.8803    0.0000 </r>
       <r>   -1.8798    0.0000 </r>
       <r>    0.0867    0.0000 </r>
      </set>
      <set comment="kpoint 70">
       <r>   -5.4808    1.0000 </r>
       <r>   -1.9056    0.0000 </r>
       <r>   -1.8801    0.0000 </r>
       <r>   -1.8795    0.0000 </r>
       <r>    0.1547    0.0000 </r>
      </set>
      <set comment="kpoint 71">
       <r>   -5.4811    1.0000 </r>
       <r>   -1.8875    0.0000 </r>
       <r>   -1.8863    0.0000 </r>
       <r>   -1.8811    0.0000 </r>
       <r>   -0.0655    0.0000 </r>
      </set>
      <set comment="kpoint 72">
       <r>   -5.4810    1.0000 </r>
       <r>   -1.8927    0.0000 </r>
       <r>   -1.8861    0.0000 </r>
       <r>   -1.8805    0.0000 </r>
       <r>   -0.0128    0.0000 </r>
      </set>
      <set comment="kpoint 73">
       <r>   -5.4808    1.0000 </r>
       <r>   -1.8982    0.0000 </r>
       <r>   -1.8855    0.0000 </r>
       <r>   -1.8800    0.0000 </r>
       <r>    0.0519    0.0000 </r>
      </set>
      <set comment="kpoint 74">
       <r>   -5.4807    1.0000 </r>
       <r>   -1.9025    0.0000 </r>
       <r>   -1.8850    0.0000 </r>
       <r>   -1.8795    0.0000 </r>
       <r>    0.1257    0.0000 </r>
      </set>
      <set comment="kpoint 75">
       <r>   -5.4807    1.0000 </r>
       <r>   -1.9048    0.0000 </r>
       <r>   -1.8848    0.0000 </r>
       <r>   -1.8793    0.0000 </r>
       <r>    0.1962    0.0000 </r>
      </set>
      <set comment="kpoint 76">
       <r>   -5.4808    1.0000 </r>
       <r>   -1.8926    0.0000 </r>
       <r>   -1.8913    0.0000 </r>
       <r>   -1.8800    0.0000 </r>
       <r>    0.0396    0.0000 </r>
      </set>
      <set comment="kpoint 77">
       <r>   -5.4807    1.0000 </r>
       <r>   -1.8974    0.0000 </r>
       <r>   -1.8912    0.0000 </r>
       <r>   -1.8794    0.0000 </r>
       <r>    0.1042    0.0000 </r>
      </set>
      <set comment="kpoint 78">
       <r>   -5.4806    1.0000 </r>
       <r>   -1.9016    0.0000 </r>
       <r>   -1.8907    0.0000 </r>
       <r>   -1.8790    0.0000 </r>
       <r>    0.1785    0.0000 </r>
      </set>
      <set comment="kpoint 79">
       <r>   -5.4805    1.0000 </r>
       <r>   -1.9039    0.0000 </r>
       <r>   -1.8904    0.0000 </r>
       <r>   -1.8788    0.0000 </r>
       <r>    0.2520    0.0000 </r>
      </set>
      <set comment="kpoint 80">
       <r>   -5.4806    1.0000 </r>
       <r>   -1.8971    0.0000 </r>
       <r>   -1.8961    0.0000 </r>
       <r>   -1.8789    0.0000 </r>
       <r>    0.1688    0.0000 </r>
      </set>
      <set comment="kpoint 81">
       <r>   -5.4805    1.0000 </r>
       <r>   -1.9008    0.0000 </r>
       <r>   -1.8960    0.0000 </r>
       <r>   -1.8785    0.0000 </r>
       <r>    0.2434    0.0000 </r>
      </set>
      <set comment="kpoint 82">
       <r>   -5.4804    1.0000 </r>
       <r>   -1.9030    0.0000 </r>
       <r>   -1.8957    0.0000 </r>
       <r>   -1.8782    0.0000 </r>
       <r>    0.3201    0.0000 </r>
      </set>
      <set comment="kpoint 83">
       <r>   -5.4804    1.0000 </r>
       <r>   -1.9003    0.0000 </r>
       <r>   -1.8999    0.0000 </r>
       <r>   -1.8780    0.0000 </r>
       <r>    0.3185    0.0000 </r>
      </set>
      <set comment="kpoint 84">
       <r>   -5.4803    1.0000 </r>
       <r>   -1.9023    0.0000 </r>
       <r>   -1.8997    0.0000 </r>
       <r>   -1.8778    0.0000 </r>
       <r>    0.3977    0.0000 </r>
      </set>
      <set comment="kpoint 85">
       <r>   -5.4802    1.0000 </r>
       <r>   -1.9020    0.0000 </r>
       <r>   -1.9019    0.0000 </r>
       <r>   -1.8776    0.0000 </r>
       <r>    0.4782    0.0000 </r>
      </set>
      <set comment="kpoint 86">
       <r>   -5.4810    1.0000 </r>
       <r>   -1.8874    0.0000 </r>
       <r>   -1.8857    0.0000 </r>
       <r>   -1.8857    0.0000 </r>
       <r>   -0.0269    0.0000 </r>
      </set>
      <set comment="kpoint 87">
       <r>   -5.4808    1.0000 </r>
       <r>   -1.8921    0.0000 </r>
       <r>   -1.8860    0.0000 </r>
       <r>   -1.8851    0.0000 </r>
       <r>    0.0255    0.0000 </r>
      </set>
      <set comment="kpoint 88">
       <r>   -5.4807    1.0000 </r>
       <r>   -1.8975    0.0000 </r>
       <r>   -1.8854    0.0000 </r>
       <r>   -1.8845    0.0000 </r>
       <r>    0.0902    0.0000 </r>
      </set>
      <set comment="kpoint 89">
       <r>   -5.4806    1.0000 </r>
       <r>   -1.9017    0.0000 </r>
       <r>   -1.8850    0.0000 </r>
       <r>   -1.8840    0.0000 </r>
       <r>    0.1644    0.0000 </r>
      </set>
      <set comment="kpoint 90">
       <r>   -5.4805    1.0000 </r>
       <r>   -1.9040    0.0000 </r>
       <r>   -1.8847    0.0000 </r>
       <r>   -1.8837    0.0000 </r>
       <r>    0.2372    0.0000 </r>
      </set>
      <set comment="kpoint 91">
       <r>   -5.4807    1.0000 </r>
       <r>   -1.8920    0.0000 </r>
       <r>   -1.8907    0.0000 </r>
       <r>   -1.8849    0.0000 </r>
       <r>    0.0776    0.0000 </r>
      </set>
      <set comment="kpoint 92">
       <r>   -5.4806    1.0000 </r>
       <r>   -1.8968    0.0000 </r>
       <r>   -1.8906    0.0000 </r>
       <r>   -1.8843    0.0000 </r>
       <r>    0.1421    0.0000 </r>
      </set>
      <set comment="kpoint 93">
       <r>   -5.4805    1.0000 </r>
       <r>   -1.9009    0.0000 </r>
       <r>   -1.8901    0.0000 </r>
       <r>   -1.8838    0.0000 </r>
       <r>    0.2166    0.0000 </r>
      </set>
      <set comment="kpoint 94">
       <r>   -5.4804    1.0000 </r>
       <r>   -1.9031    0.0000 </r>
       <r>   -1.8898    0.0000 </r>
       <r>   -1.8836    0.0000 </r>
       <r>    0.2924    0.0000 </r>
      </set>
      <set comment="kpoint 95">
       <r>   -5.4804    1.0000 </r>
       <r>   -1.8964    0.0000 </r>
       <r>   -1.8955    0.0000 </r>
       <r>   -1.8837    0.0000 </r>
       <r>    0.2063    0.0000 </r>
      </set>
      <set comment="kpoint 96">
       <r>   -5.4803    1.0000 </r>
       <r>   -1.9001    0.0000 </r>
       <r>   -1.8953    0.0000 </r>
       <r>   -1.8832    0.0000 </r>
       <r>    0.2809    0.0000 </r>
      </set>
      <set comment="kpoint 97">
       <r>   -5.4803    1.0000 </r>
       <r>   -1.9023    0.0000 </r>
       <r>   -1.8950    0.0000 </r>
       <r>   -1.8830    0.0000 </r>
       <r>    0.3598    0.0000 </r>
      </set>
      <set comment="kpoint 98">
       <r>   -5.4802    1.0000 </r>
       <r>   -1.8996    0.0000 </r>
       <r>   -1.8992    0.0000 </r>
       <r>   -1.8828    0.0000 </r>
       <r>    0.3557    0.0000 </r>
      </set>
      <set comment="kpoint 99">
       <r>   -5.4802    1.0000 </r>
       <r>   -1.9016    0.0000 </r>
       <r>   -1.8991    0.0000 </r>
       <r>   -1.8825    0.0000 </r>
       <r>    0.4369    0.0000 </r>
      </set>
      <set comment="kpoint 100">
       <r>   -5.4801    1.0000 </r>
       <r>   -1.9013    0.0000 </r>
       <r>   -1.9012    0.0000 </r>
       <r>   -1.8823    0.0000 </r>
       <r>    0.5196    0.0000 </r>
      </set>
      <set comment="kpoint 101">
       <r>   -5.4806    1.0000 </r>
       <r>   -1.8917    0.0000 </r>
       <r>   -1.8900    0.0000 </r>
       <r>   -1.8900    0.0000 </r>
       <r>    0.1293    0.0000 </r>
      </set>
      <set comment="kpoint 102">
       <r>   -5.4804    1.0000 </r>
       <r>   -1.8960    0.0000 </r>
       <r>   -1.8904    0.0000 </r>
       <r>   -1.8894    0.0000 </r>
       <r>    0.1934    0.0000 </r>
      </set>
      <set comment="kpoint 103">
       <r>   -5.4803    1.0000 </r>
       <r>   -1.9001    0.0000 </r>
       <r>   -1.8899    0.0000 </r>
       <r>   -1.8888    0.0000 </r>
       <r>    0.2681    0.0000 </r>
      </set>
      <set comment="kpoint 104">
       <r>   -5.4803    1.0000 </r>
       <r>   -1.9023    0.0000 </r>
       <r>   -1.8896    0.0000 </r>
       <r>   -1.8886    0.0000 </r>
       <r>    0.3466    0.0000 </r>
      </set>
      <set comment="kpoint 105">
       <r>   -5.4803    1.0000 </r>
       <r>   -1.8957    0.0000 </r>
       <r>   -1.8947    0.0000 </r>
       <r>   -1.8892    0.0000 </r>
       <r>    0.2571    0.0000 </r>
      </set>
      <set comment="kpoint 106">
       <r>   -5.4802    1.0000 </r>
       <r>   -1.8993    0.0000 </r>
       <r>   -1.8946    0.0000 </r>
       <r>   -1.8887    0.0000 </r>
       <r>    0.3315    0.0000 </r>
      </set>
      <set comment="kpoint 107">
       <r>   -5.4802    1.0000 </r>
       <r>   -1.9014    0.0000 </r>
       <r>   -1.8943    0.0000 </r>
       <r>   -1.8884    0.0000 </r>
       <r>    0.4125    0.0000 </r>
      </set>
      <set comment="kpoint 108">
       <r>   -5.4801    1.0000 </r>
       <r>   -1.8988    0.0000 </r>
       <r>   -1.8984    0.0000 </r>
       <r>   -1.8882    0.0000 </r>
       <r>    0.4056    0.0000 </r>
      </set>
      <set comment="kpoint 109">
       <r>   -5.4801    1.0000 </r>
       <r>   -1.9008    0.0000 </r>
       <r>   -1.8983    0.0000 </r>
       <r>   -1.8879    0.0000 </r>
       <r>    0.4881    0.0000 </r>
      </set>
      <set comment="kpoint 110">
       <r>   -5.4800    1.0000 </r>
       <r>   -1.9005    0.0000 </r>
       <r>   -1.9004    0.0000 </r>
       <r>   -1.8876    0.0000 </r>
       <r>    0.5711    0.0000 </r>
      </set>
      <set comment="kpoint 111">
       <r>   -5.4802    1.0000 </r>
       <r>   -1.8952    0.0000 </r>
       <r>   -1.8940    0.0000 </r>
       <r>   -1.8940    0.0000 </r>
       <r>    0.3199    0.0000 </r>
      </set>
      <set comment="kpoint 112">
       <r>   -5.4801    1.0000 </r>
       <r>   -1.8985    0.0000 </r>
       <r>   -1.8942    0.0000 </r>
       <r>   -1.8935    0.0000 </r>
       <r>    0.3937    0.0000 </r>
      </set>
      <set comment="kpoint 113">
       <r>   -5.4800    1.0000 </r>
       <r>   -1.9006    0.0000 </r>
       <r>   -1.8939    0.0000 </r>
       <r>   -1.8932    0.0000 </r>
       <r>    0.4761    0.0000 </r>
      </set>
      <set comment="kpoint 114">
       <r>   -5.4800    1.0000 </r>
       <r>   -1.8981    0.0000 </r>
       <r>   -1.8977    0.0000 </r>
       <r>   -1.8933    0.0000 </r>
       <r>    0.4665    0.0000 </r>
      </set>
      <set comment="kpoint 115">
       <r>   -5.4799    1.0000 </r>
       <r>   -1.9000    0.0000 </r>
       <r>   -1.8975    0.0000 </r>
       <r>   -1.8930    0.0000 </r>
       <r>    0.5487    0.0000 </r>
      </set>
      <set comment="kpoint 116">
       <r>   -5.4799    1.0000 </r>
       <r>   -1.8997    0.0000 </r>
       <r>   -1.8996    0.0000 </r>
       <r>   -1.8927    0.0000 </r>
       <r>    0.6288    0.0000 </r>
      </set>
      <set comment="kpoint 117">
       <r>   -5.4799    1.0000 </r>
       <r>   -1.8976    0.0000 </r>
       <r>   -1.8971    0.0000 </r>
       <r>   -1.8971    0.0000 </r>
       <r>    0.5372    0.0000 </r>
      </set>
      <set comment="kpoint 118">
       <r>   -5.4798    1.0000 </r>
       <r>   -1.8994    0.0000 </r>
       <r>   -1.8971    0.0000 </r>
       <r>   -1.8967    0.0000 </r>
       <r>    0.6168    0.0000 </r>
      </set>
      <set comment="kpoint 119">
       <r>   -5.4798    1.0000 </r>
       <r>   -1.8991    0.0000 </r>
       <r>   -1.8990    0.0000 </r>
       <r>   -1.8966    0.0000 </r>
       <r>    0.6907    0.0000 </r>
      </set>
      <set comment="kpoint 120">
       <r>   -5.4797    1.0000 </r>
       <r>   -1.8988    0.0000 </r>
       <r>   -1.8987    0.0000 </r>
       <r>   -1.8987    0.0000 </r>
       <r>    0.7536    0.0000 </r>
      </set>
     </set>
    </set>
   </array>
  </eigenvalues>
  <separator name="orbital magnetization" >
   <v name="MAGDIPOLOUT">      0.00000000      0.00000000      0.00000000</v>
  </separator>
  <dos>
   <i name="efermi">     -4.54755821 </i>
   <total>
    <array>
     <dimension dim="1">gridpoints</dimension>
     <dimension dim="2">spin</dimension>
     <field>energy</field>
     <field>total</field>
     <field>integrated</field>
     <set>
      <set comment="spin 1">
       <r>    -7.4817     0.0000     0.0000 </r>
       <r>    -7.4475     0.0000     0.0000 </r>
       <r>    -7.4134     0.0000     0.0000 </r>
       <r>    -7.3793     0.0000     0.0000 </r>
       <r>    -7.3452     0.0000     0.0000 </r>
       <r>    -7.3111     0.0000     0.0000 </r>
       <r>    -7.2769     0.0000     0.0000 </r>
       <r>    -7.2428     0.0000     0.0000 </r>
       <r>    -7.2087     0.0000     0.0000 </r>
       <r>    -7.1746     0.0000     0.0000 </r>
       <r>    -7.1405     0.0000     0.0000 </r>
       <r>    -7.1064     0.0000     0.0000 </r>
       <r>    -7.0722     0.0000     0.0000 </r>
       <r>    -7.0381     0.0000     0.0000 </r>
       <r>    -7.0040     0.0000     0.0000 </r>
       <r>    -6.9699     0.0000     0.0000 </r>
       <r>    -6.9358     0.0000     0.0000 </r>
       <r>    -6.9017     0.0000     0.0000 </r>
       <r>    -6.8675     0.0000     0.0000 </r>
       <r>    -6.8334     0.0000     0.0000 </r>
       <r>    -6.7993     0.0000     0.0000 </r>
       <r>    -6.7652     0.0000     0.0000 </r>
       <r>    -6.7311     0.0000     0.0000 </r>
       <r>    -6.6970     0.0000     0.0000 </r>
       <r>    -6.6628     0.0000     0.0000 </r>
       <r>    -6.6287     0.0000     0.0000 </r>
       <r>    -6.5946     0.0000     0.0000 </r>
       <r>    -6.5605     0.0000     0.0000 </r>
       <r>    -6.5264     0.0000     0.0000 </r>
       <r>    -6.4922     0.0000     0.0000 </r>
       <r>    -6.4581     0.0000     0.0000 </r>
       <r>    -6.4240     0.0000     0.0000 </r>
       <r>    -6.3899     0.0000     0.0000 </r>
       <r>    -6.3558     0.0000     0.0000 </r>
       <r>    -6.3217     0.0000     0.0000 </r>
       <r>    -6.2875     0.0000     0.0000 </r>
       <r>    -6.2534     0.0000     0.0000 </r>
       <r>    -6.2193     0.0000     0.0000 </r>
       <r>    -6.1852     0.0000     0.0000 </r>
       <r>    -6.1511     0.0000     0.0000 </r>
       <r>    -6.1170     0.0001     0.0000 </r>
       <r>    -6.0828     0.0004     0.0000 </r>
       <r>    -6.0487     0.0011     0.0001 </r>
       <r>    -6.0146     0.0030     0.0002 </r>
       <r>    -5.9805     0.0073     0.0004 </r>
       <r>    -5.9464     0.0171     0.0010 </r>
       <r>    -5.9123     0.0376     0.0023 </r>
       <r>    -5.8781     0.0783     0.0049 </r>
       <r>    -5.8440     0.1537     0.0102 </r>
       <r>    -5.8099     0.2849     0.0199 </r>
       <r>    -5.7758     0.4982     0.0369 </r>
       <r>    -5.7417     0.8222     0.0650 </r>
       <r>    -5.7075     1.2806     0.1086 </r>
       <r>    -5.6734     1.8823     0.1729 </r>
       <r>    -5.6393     2.6109     0.2619 </r>
       <r>    -5.6052     3.4179     0.3786 </r>
       <r>    -5.5711     4.2225     0.5226 </r>
       <r>    -5.5370     4.9230     0.6906 </r>
       <r>    -5.5028     5.4167     0.8754 </r>
       <r>    -5.4687     5.6246     1.0673 </r>
       <r>    -5.4346     5.5117     1.2553 </r>
       <r>    -5.4005     5.0972     1.4292 </r>
       <r>    -5.3664     4.4486     1.5810 </r>
       <r>    -5.3323     3.6640     1.7060 </r>
       <r>    -5.2981     2.8480     1.8032 </r>
       <r>    -5.2640     2.0892     1.8745 </r>
       <r>    -5.2299     1.4463     1.9238 </r>
       <r>    -5.1958     0.9449     1.9560 </r>
       <r>    -5.1617     0.5826     1.9759 </r>
       <r>    -5.1276     0.3390     1.9875 </r>
       <r>    -5.0934     0.1861     1.9938 </r>
       <r>    -5.0593     0.0965     1.9971 </r>
       <r>    -5.0252     0.0472     1.9987 </r>
       <r>    -4.9911     0.0218     1.9995 </r>
       <r>    -4.9570     0.0095     1.9998 </r>
       <r>    -4.9228     0.0039     1.9999 </r>
       <r>    -4.8887     0.0015     2.0000 </r>
       <r>    -4.8546     0.0006     2.0000 </r>
       <r>    -4.8205     0.0002     2.0000 </r>
       <r>    -4.7864     0.0001     2.0000 </r>
       <r>    -4.7523     0.0000     2.0000 </r>
       <r>    -4.7181     0.0000     2.0000 </r>
       <r>    -4.6840     0.0000     2.0000 </r>
       <r>    -4.6499     0.0000     2.0000 </r>
       <r>    -4.6158     0.0000     2.0000 </r>
       <r>    -4.5817     0.0000     2.0000 </r>
       <r>    -4.5476     0.0000     2.0000 </r>
       <r>    -4.5134     0.0000     2.0000 </r>
       <r>    -4.4793     0.0000     2.0000 </r>
       <r>    -4.4452     0.0000     2.0000 </r>
       <r>    -4.4111     0.0000     2.0000 </r>
       <r>    -4.3770     0.0000     2.0000 </r>
       <r>    -4.3429     0.0000     2.0000 </r>
       <r>    -4.3087     0.0000     2.0000 </r>
       <r>    -4.2746     0.0000     2.0000 </r>
       <r>    -4.2405     0.0000     2.0000 </r>
       <r>    -4.2064     0.0000     2.0000 </r>
       <r>    -4.1723     0.0000     2.0000 </r>
       <r>    -4.1381     0.0000     2.0000 </r>
       <r>    -4.1040     0.0000     2.0000 </r>
       <r>    -4.0699     0.0000     2.0000 </r>
       <r>    -4.0358     0.0000     2.0000 </r>
       <r>    -4.0017     0.0000     2.0000 </r>
       <r>    -3.9676     0.0000     2.0000 </r>
       <r>    -3.9334     0.0000     2.0000 </r>
       <r>    -3.8993     0.0000     2.0000 </r>
       <r>    -3.8652     0.0000     2.0000 </r>
       <r>    -3.8311     0.0000     2.0000 </r>
       <r>    -3.7970     0.0000     2.0000 </r>
       <r>    -3.7629     0.0000     2.0000 </r>
       <r>    -3.7287     0.0000     2.0000 </r>
       <r>    -3.6946     0.0000     2.0000 </r>
       <r>    -3.6605     0.0000     2.0000 </r>
       <r>    -3.6264     0.0000     2.0000 </r>
       <r>    -3.5923     0.0000     2.0000 </r>
       <r>    -3.5582     0.0000     2.0000 </r>
       <r>    -3.5240     0.0000     2.0000 </r>
       <r>    -3.4899     0.0000     2.0000 </r>
       <r>    -3.4558     0.0000     2.0000 </r>
       <r>    -3.4217     0.0000     2.0000 </r>
       <r>    -3.3876     0.0000     2.0000 </r>
       <r>    -3.3534     0.0000     2.0000 </r>
       <r>    -3.3193     0.0000     2.0000 </r>
       <r>    -3.2852     0.0000     2.0000 </r>
       <r>    -3.2511     0.0000     2.0000 </r>
       <r>    -3.2170     0.0000     2.0000 </r>
       <r>    -3.1829     0.0000     2.0000 </r>
       <r>    -3.1487     0.0000     2.0000 </r>
       <r>    -3.1146     0.0000     2.0000 </r>
       <r>    -3.0805     0.0000     2.0000 </r>
       <r>    -3.0464     0.0000     2.0000 </r>
       <r>    -3.0123     0.0000     2.0000 </r>
       <r>    -2.9782     0.0000     2.0000 </r>
       <r>    -2.9440     0.0000     2.0000 </r>
       <r>    -2.9099     0.0000     2.0000 </r>
       <r>    -2.8758     0.0000     2.0000 </r>
       <r>    -2.8417     0.0000     2.0000 </r>
       <r>    -2.8076     0.0000     2.0000 </r>
       <r>    -2.7735     0.0000     2.0000 </r>
       <r>    -2.7393     0.0000     2.0000 </r>
       <r>    -2.7052     0.0000     2.0000 </r>
       <r>    -2.6711     0.0000     2.0000 </r>
       <r>    -2.6370     0.0000     2.0000 </r>
       <r>    -2.6029     0.0000     2.0000 </r>
       <r>    -2.5688     0.0001     2.0000 </r>
       <r>    -2.5346     0.0003     2.0000 </r>
       <r>    -2.5005     0.0010     2.0000 </r>
       <r>    -2.4664     0.0027     2.0001 </r>
       <r>    -2.4323     0.0072     2.0004 </r>
       <r>    -2.3982     0.0179     2.0010 </r>
       <r>    -2.3640     0.0423     2.0024 </r>
       <r>    -2.3299     0.0944     2.0057 </r>
       <r>    -2.2958     0.1987     2.0124 </r>
       <r>    -2.2617     0.3949     2.0259 </r>
       <r>    -2.2276     0.7407     2.0512 </r>
       <r>    -2.1935     1.3115     2.0959 </r>
       <r>    -2.1593     2.1920     2.1707 </r>
       <r>    -2.1252     3.4586     2.2887 </r>
       <r>    -2.0911     5.1513     2.4645 </r>
       <r>    -2.0570     7.2428     2.7116 </r>
       <r>    -2.0229     9.6129     3.0395 </r>
       <r>    -1.9888    12.0441     3.4504 </r>
       <r>    -1.9546    14.2449     3.9364 </r>
       <r>    -1.9205    15.9042     4.4791 </r>
       <r>    -1.8864    16.7622     5.0509 </r>
       <r>    -1.8523    16.6770     5.6199 </r>
       <r>    -1.8182    15.6629     6.1543 </r>
       <r>    -1.7841    13.8865     6.6281 </r>
       <r>    -1.7499    11.6220     7.0246 </r>
       <r>    -1.7158     9.1819     7.3378 </r>
       <r>    -1.6817     6.8479     7.5715 </r>
       <r>    -1.6476     4.8210     7.7359 </r>
       <r>    -1.6135     3.2040     7.8453 </r>
       <r>    -1.5793     2.0101     7.9138 </r>
       <r>    -1.5452     1.1904     7.9544 </r>
       <r>    -1.5111     0.6655     7.9772 </r>
       <r>    -1.4770     0.3512     7.9891 </r>
       <r>    -1.4429     0.1749     7.9951 </r>
       <r>    -1.4088     0.0823     7.9979 </r>
       <r>    -1.3746     0.0365     7.9992 </r>
       <r>    -1.3405     0.0153     7.9997 </r>
       <r>    -1.3064     0.0061     7.9999 </r>
       <r>    -1.2723     0.0023     8.0000 </r>
       <r>    -1.2382     0.0008     8.0000 </r>
       <r>    -1.2041     0.0003     8.0000 </r>
       <r>    -1.1699     0.0001     8.0000 </r>
       <r>    -1.1358     0.0000     8.0000 </r>
       <r>    -1.1017     0.0000     8.0000 </r>
       <r>    -1.0676     0.0000     8.0000 </r>
       <r>    -1.0335     0.0000     8.0000 </r>
       <r>    -0.9994     0.0000     8.0000 </r>
       <r>    -0.9652     0.0000     8.0000 </r>
       <r>    -0.9311     0.0000     8.0000 </r>
       <r>    -0.8970     0.0000     8.0000 </r>
       <r>    -0.8629     0.0000     8.0000 </r>
       <r>    -0.8288     0.0000     8.0000 </r>
       <r>    -0.7946     0.0000     8.0000 </r>
       <r>    -0.7605     0.0001     8.0000 </r>
       <r>    -0.7264     0.0002     8.0000 </r>
       <r>    -0.6923     0.0004     8.0000 </r>
       <r>    -0.6582     0.0010     8.0001 </r>
       <r>    -0.6241     0.0022     8.0001 </r>
       <r>    -0.5899     0.0048     8.0003 </r>
       <r>    -0.5558     0.0097     8.0006 </r>
       <r>    -0.5217     0.0187     8.0013 </r>
       <r>    -0.4876     0.0344     8.0024 </r>
       <r>    -0.4535     0.0605     8.0045 </r>
       <r>    -0.4194     0.1013     8.0080 </r>
       <r>    -0.3852     0.1621     8.0135 </r>
       <r>    -0.3511     0.2482     8.0220 </r>
       <r>    -0.3170     0.3644     8.0344 </r>
       <r>    -0.2829     0.5139     8.0519 </r>
       <r>    -0.2488     0.6978     8.0757 </r>
       <r>    -0.2147     0.9144     8.1069 </r>
       <r>    -0.1805     1.1591     8.1465 </r>
       <r>    -0.1464     1.4251     8.1951 </r>
       <r>    -0.1123     1.7036     8.2532 </r>
       <r>    -0.0782     1.9846     8.3209 </r>
       <r>    -0.0441     2.2576     8.3979 </r>
       <r>    -0.0099     2.5116     8.4836 </r>
       <r>     0.0242     2.7363     8.5770 </r>
       <r>     0.0583     2.9219     8.6767 </r>
       <r>     0.0924     3.0600     8.7811 </r>
       <r>     0.1265     3.1447     8.8884 </r>
       <r>     0.1606     3.1726     8.9966 </r>
       <r>     0.1948     3.1440     9.1039 </r>
       <r>     0.2289     3.0622     9.2083 </r>
       <r>     0.2630     2.9333     9.3084 </r>
       <r>     0.2971     2.7653     9.4028 </r>
       <r>     0.3312     2.5672     9.4903 </r>
       <r>     0.3653     2.3477     9.5704 </r>
       <r>     0.3995     2.1153     9.6426 </r>
       <r>     0.4336     1.8776     9.7067 </r>
       <r>     0.4677     1.6413     9.7627 </r>
       <r>     0.5018     1.4122     9.8108 </r>
       <r>     0.5359     1.1952     9.8516 </r>
       <r>     0.5700     0.9944     9.8856 </r>
       <r>     0.6042     0.8127     9.9133 </r>
       <r>     0.6383     0.6520     9.9355 </r>
       <r>     0.6724     0.5129     9.9530 </r>
       <r>     0.7065     0.3952     9.9665 </r>
       <r>     0.7406     0.2980     9.9767 </r>
       <r>     0.7748     0.2194     9.9842 </r>
       <r>     0.8089     0.1574     9.9895 </r>
       <r>     0.8430     0.1099     9.9933 </r>
       <r>     0.8771     0.0744     9.9958 </r>
       <r>     0.9112     0.0488     9.9975 </r>
       <r>     0.9453     0.0309     9.9985 </r>
       <r>     0.9795     0.0189     9.9992 </r>
       <r>     1.0136     0.0111     9.9996 </r>
       <r>     1.0477     0.0062     9.9998 </r>
       <r>     1.0818     0.0033     9.9999 </r>
       <r>     1.1159     0.0017     9.9999 </r>
       <r>     1.1500     0.0008    10.0000 </r>
       <r>     1.1842     0.0004    10.0000 </r>
       <r>     1.2183     0.0002    10.0000 </r>
       <r>     1.2524     0.0001    10.0000 </r>
       <r>     1.2865     0.0000    10.0000 </r>
       <r>     1.3206     0.0000    10.0000 </r>
       <r>     1.3547     0.0000    10.0000 </r>
       <r>     1.3889     0.0000    10.0000 </r>
       <r>     1.4230     0.0000    10.0000 </r>
       <r>     1.4571     0.0000    10.0000 </r>
       <r>     1.4912     0.0000    10.0000 </r>
       <r>     1.5253     0.0000    10.0000 </r>
       <r>     1.5595     0.0000    10.0000 </r>
       <r>     1.5936     0.0000    10.0000 </r>
       <r>     1.6277     0.0000    10.0000 </r>
       <r>     1.6618     0.0000    10.0000 </r>
       <r>     1.6959     0.0000    10.0000 </r>
       <r>     1.7300     0.0000    10.0000 </r>
       <r>     1.7642     0.0000    10.0000 </r>
       <r>     1.7983     0.0000    10.0000 </r>
       <r>     1.8324     0.0000    10.0000 </r>
       <r>     1.8665     0.0000    10.0000 </r>
       <r>     1.9006     0.0000    10.0000 </r>
       <r>     1.9347     0.0000    10.0000 </r>
       <r>     1.9689     0.0000    10.0000 </r>
       <r>     2.0030     0.0000    10.0000 </r>
       <r>     2.0371     0.0000    10.0000 </r>
       <r>     2.0712     0.0000    10.0000 </r>
       <r>     2.1053     0.0000    10.0000 </r>
       <r>     2.1394     0.0000    10.0000 </r>
       <r>     2.1736     0.0000    10.0000 </r>
       <r>     2.2077     0.0000    10.0000 </r>
       <r>     2.2418     0.0000    10.0000 </r>
       <r>     2.2759     0.0000    10.0000 </r>
       <r>     2.3100     0.0000    10.0000 </r>
       <r>     2.3442     0.0000    10.0000 </r>
       <r>     2.3783     0.0000    10.0000 </r>
       <r>     2.4124     0.0000    10.0000 </r>
       <r>     2.4465     0.0000    10.0000 </r>
       <r>     2.4806     0.0000    10.0000 </r>
       <r>     2.5147     0.0000    10.0000 </r>
       <r>     2.5489     0.0000    10.0000 </r>
       <r>     2.5830     0.0000    10.0000 </r>
       <r>     2.6171     0.0000    10.0000 </r>
       <r>     2.6512     0.0000    10.0000 </r>
       <r>     2.6853     0.0000    10.0000 </r>
       <r>     2.7194     0.0000    10.0000 </r>
       <r>     2.7536     0.0000    10.0000 </r>
      </set>
     </set>
    </array>
   </total>
  </dos>
 </calculation>
 <structure name="finalpos" >
  <crystal>
   <varray name="basis" >
    <v>      10.00000000       0.00000000       0.00000000 </v>
    <v>       0.00000000      10.00000000       0.00000000 </v>
    <v>       0.00000000       0.00000000      10.00000000 </v>
   </varray>
   <i name="volume">   1000.00000000 </i>
   <varray name="rec_basis" >
    <v>       0.10000000       0.00000000       0.00000000 </v>
    <v>       0.00000000       0.10000000       0.00000000 </v>
    <v>       0.00000000       0.00000000       0.10000000 </v>
   </varray>
  </crystal>
  <varray name="positions" >
   <v>       0.50000000       0.50000000       0.50000000 </v>
  </varray>
 </structure>
</modeling>
